============================== echo of input deck ==============================
start h4_dimer_10000au_fci_sto6g

memory stack 100 mb heap 100 mb global 200 mb noverify

geometry units angstrom
symmetry c1
H      0.000  0.000  0.000
H      2.000  0.000  0.000
H      0.000  2.000  0.000
H      2.000  2.000  0.000
H  10000.000  0.000  0.000
H  10002.000  0.000  0.000
H  10000.000  2.000  0.000
H  10002.000  2.000  0.000
end

basis
 * library sto-6g
end

scf
thresh 1.0e-8
tol2e 1.0e-9
singlet
rhf
maxiter 200
end

tce
ccsd
2eorb
2emet 13
tilesize 1
thresh 1.0d-8
end

echo
set tce:print_integrals T
set tce:qorb  8
set tce:qela  4
set tce:qelb  4

task tce energy

mcscf
  active  8
  actelec 8
  multiplicity 1
end

task mcscf

================================================================================

 Output coordinates in angstroms (scale by  1.889725989 to convert to a.u.)

  No.       Tag          Charge          X              Y              Z
 ---- ---------------- ---------- -------------- -------------- --------------
    1 H                    1.0000 -5001.00000000    -1.00000000     0.00000000
    2 H                    1.0000 -4999.00000000    -1.00000000     0.00000000
    3 H                    1.0000 -5001.00000000     1.00000000     0.00000000
    4 H                    1.0000 -4999.00000000     1.00000000     0.00000000
    5 H                    1.0000  4999.00000000    -1.00000000     0.00000000
    6 H                    1.0000  5001.00000000    -1.00000000     0.00000000
    7 H                    1.0000  4999.00000000     1.00000000     0.00000000
    8 H                    1.0000  5001.00000000     1.00000000     0.00000000

         Total SCF energy =     -3.117165398137

 Vector    1  Occ=2.000000D+00  E=-3.310848D-01

 Vector    2  Occ=2.000000D+00  E=-3.310848D-01

 Vector    3  Occ=2.000000D+00  E=-2.026600D-01

 Vector    4  Occ=2.000000D+00  E=-2.026600D-01

 Vector    5  Occ=0.000000D+00  E= 5.409092D-02

 Vector    6  Occ=0.000000D+00  E= 5.409092D-02

 Vector    7  Occ=0.000000D+00  E= 1.667237D-01

 Vector    8  Occ=0.000000D+00  E= 1.667237D-01

 CCSD total energy / hartree       =        -3.870383705335587

 Vector    1  Occ=1.558707D+00  E=-3.310848D-01  Symmetry=a

 Vector    2  Occ=1.558707D+00  E=-3.310848D-01  Symmetry=a

 Vector    3  Occ=1.000004D+00  E=-2.026600D-01  Symmetry=a

 Vector    4  Occ=1.000004D+00  E=-2.026600D-01  Symmetry=a

 Vector    5  Occ=9.999959D-01  E= 5.409092D-02  Symmetry=a

 Vector    6  Occ=9.999959D-01  E= 5.409092D-02  Symmetry=a

 Vector    7  Occ=4.412930D-01  E= 1.667237D-01  Symmetry=a

 Vector    8  Occ=4.412930D-01  E= 1.667237D-01  Symmetry=a

     Multipole analysis of the density
     ---------------------------------

     L   x y z        total        nuclear
     -   - - -        -----        -------
     0   0 0 0     -0.000000      8.000000

     1   1 0 0     -0.000000      0.000000
     1   0 1 0     -0.000000      0.000000
     1   0 0 1      0.000000      0.000000

     2   2 0 0     -4.913707**************
     2   1 1 0      0.000000      0.000000
     2   1 0 1      0.000000      0.000000
     2   0 2 0     -4.913576     28.568514
     2   0 1 1      0.000000      0.000000

 Total times  cpu:        4.9s     wall:        7.4s
