============================== echo of input deck ==============================
start h4_dimer_6au_fci_sto6g

memory stack 100 mb heap 100 mb global 200 mb noverify

geometry units angstrom
symmetry c1
H    0.000  0.000  0.000
H    2.000  0.000  0.000
H    0.000  2.000  0.000
H    2.000  2.000  0.000
H    6.000  0.000  0.000
H    8.000  0.000  0.000
H    6.000  2.000  0.000
H    8.000  2.000  0.000
end

basis
 * library sto-6g
end

scf
thresh 1.0e-8
tol2e 1.0e-9
singlet
rhf
maxiter 200
end

tce
ccsd
2eorb
2emet 13
maxiter 400
tilesize 1
thresh 1.0d-8
lshift 0.3
end

echo
set tce:print_integrals T
set tce:qorb  8
set tce:qela  4
set tce:qelb  4

task tce energy

mcscf
  active  8
  actelec 8
  multiplicity 1
end

task mcscf

================================================================================

 Output coordinates in angstroms (scale by  1.889725989 to convert to a.u.)

  No.       Tag          Charge          X              Y              Z
 ---- ---------------- ---------- -------------- -------------- --------------
    1 H                    1.0000    -4.00000000    -1.00000000     0.00000000
    2 H                    1.0000    -2.00000000    -1.00000000     0.00000000
    3 H                    1.0000    -4.00000000     1.00000000     0.00000000
    4 H                    1.0000    -2.00000000     1.00000000     0.00000000
    5 H                    1.0000     2.00000000    -1.00000000     0.00000000
    6 H                    1.0000     4.00000000    -1.00000000     0.00000000
    7 H                    1.0000     2.00000000     1.00000000     0.00000000
    8 H                    1.0000     4.00000000     1.00000000     0.00000000

         Total SCF energy =     -2.958951795224

 Vector    1  Occ=2.000000D+00  E=-3.371185D-01

 Vector    2  Occ=2.000000D+00  E=-3.262154D-01

 Vector    3  Occ=2.000000D+00  E=-1.241581D-01

 Vector    4  Occ=2.000000D+00  E=-1.227643D-01

 Vector    5  Occ=0.000000D+00  E=-2.683705D-02

 Vector    6  Occ=0.000000D+00  E=-2.485871D-02

 Vector    7  Occ=0.000000D+00  E= 1.608947D-01

 Vector    8  Occ=0.000000D+00  E= 1.719487D-01

 CCSD total energy / hartree       =        -5.360775363292730

 Vector    1  Occ=1.559683D+00  E=-3.371185D-01  Symmetry=a

 Vector    2  Occ=1.557748D+00  E=-3.262154D-01  Symmetry=a

 Vector    3  Occ=1.002197D+00  E=-1.241581D-01  Symmetry=a

 Vector    4  Occ=1.001068D+00  E=-1.227643D-01  Symmetry=a

 Vector    5  Occ=9.990282D-01  E=-2.683705D-02  Symmetry=a

 Vector    6  Occ=9.977018D-01  E=-2.485871D-02  Symmetry=a

 Vector    7  Occ=4.419722D-01  E= 1.608947D-01  Symmetry=a

 Vector    8  Occ=4.406018D-01  E= 1.719487D-01  Symmetry=a

     Multipole analysis of the density
     ---------------------------------

     L   x y z        total        nuclear
     -   - - -        -----        -------
     0   0 0 0     -0.000000      8.000000

     1   1 0 0      0.000000      0.000000
     1   0 1 0      0.000000      0.000000
     1   0 0 1      0.000000      0.000000

     2   2 0 0     -4.912883    285.685145
     2   1 1 0     -0.000000      0.000000
     2   1 0 1      0.000000      0.000000
     2   0 2 0     -4.913629     28.568514
     2   0 1 1      0.000000      0.000000

 Total times  cpu:       12.1s     wall:       15.9s
