============================== echo of input deck ==============================
start h4_dimer_4au_fci_sto6g

memory stack 100 mb heap 100 mb global 200 mb noverify

geometry units angstrom
symmetry c1
H    0.000  0.000  0.000
H    2.000  0.000  0.000
H    0.000  2.000  0.000
H    2.000  2.000  0.000
H    4.000  0.000  0.000
H    6.000  0.000  0.000
H    4.000  2.000  0.000
H    6.000  2.000  0.000
end

basis
 * library sto-6g
end

scf
thresh 1.0e-8
tol2e 1.0e-9
singlet
rhf
maxiter 200
end

tce
ccsd
2eorb
2emet 13
tilesize 1
thresh 1.0d-8
maxiter 400
lshift 0.3
end

echo
set tce:print_integrals T
set tce:qorb  8
set tce:qela  4
set tce:qelb  4

task tce energy

mcscf
  active  8
  actelec 8
  multiplicity 1
end

task mcscf

================================================================================

 Output coordinates in angstroms (scale by  1.889725989 to convert to a.u.)

  No.       Tag          Charge          X              Y              Z
 ---- ---------------- ---------- -------------- -------------- --------------
    1 H                    1.0000    -3.00000000    -1.00000000     0.00000000
    2 H                    1.0000    -1.00000000    -1.00000000     0.00000000
    3 H                    1.0000    -3.00000000     1.00000000     0.00000000
    4 H                    1.0000    -1.00000000     1.00000000     0.00000000
    5 H                    1.0000     1.00000000    -1.00000000     0.00000000
    6 H                    1.0000     3.00000000    -1.00000000     0.00000000
    7 H                    1.0000     1.00000000     1.00000000     0.00000000
    8 H                    1.0000     3.00000000     1.00000000     0.00000000

         Total SCF energy =     -3.197907731460

 Vector    1  Occ=2.000000D+00  E=-3.830386D-01

 Vector    2  Occ=2.000000D+00  E=-3.059493D-01

 Vector    3  Occ=2.000000D+00  E=-2.098936D-01

 Vector    4  Occ=2.000000D+00  E=-2.059777D-01

 Vector    5  Occ=0.000000D+00  E= 3.683836D-02

 Vector    6  Occ=0.000000D+00  E= 8.321467D-02

 Vector    7  Occ=0.000000D+00  E= 1.260810D-01

 Vector    8  Occ=0.000000D+00  E= 2.272907D-01

 CCSD total energy / hartree       =        -4.559375038871658

 Vector    1  Occ=1.622224D+00  E=-3.830386D-01  Symmetry=a

 Vector    2  Occ=1.477613D+00  E=-3.059493D-01  Symmetry=a

 Vector    3  Occ=1.201526D+00  E=-2.098936D-01  Symmetry=a

 Vector    4  Occ=1.141368D+00  E=-2.059777D-01  Symmetry=a

 Vector    5  Occ=8.615690D-01  E= 3.683836D-02  Symmetry=a

 Vector    6  Occ=7.936459D-01  E= 8.321467D-02  Symmetry=a

 Vector    7  Occ=5.244722D-01  E= 1.260810D-01  Symmetry=a

 Vector    8  Occ=3.775823D-01  E= 2.272907D-01  Symmetry=a

     Multipole analysis of the density
     ---------------------------------

     L   x y z        total        nuclear
     -   - - -        -----        -------
     0   0 0 0     -0.000000      8.000000

     1   1 0 0     -0.000000      0.000000
     1   0 1 0      0.000000      0.000000
     1   0 0 1      0.000000      0.000000

     2   2 0 0     -4.790592    142.842572
     2   1 1 0     -0.000000      0.000000
     2   1 0 1      0.000000      0.000000
     2   0 2 0     -4.990202     28.568514
     2   0 1 1      0.000000      0.000000

 Total times  cpu:        8.1s     wall:       11.5s
