============================== echo of input deck ==============================
start h4_dimer_8au_fci_sto6g

memory stack 100 mb heap 100 mb global 200 mb noverify

geometry units angstrom
symmetry c1
H    0.000  0.000  0.000
H    2.000  0.000  0.000
H    0.000  2.000  0.000
H    2.000  2.000  0.000
H    8.000  0.000  0.000
H   10.000  0.000  0.000
H    8.000  2.000  0.000
H   10.000  2.000  0.000
end

basis
 * library sto-6g
end

scf
thresh 1.0e-8
tol2e 1.0e-9
singlet
rhf
maxiter 200
end

tce
ccsd
2eorb
2emet 13
maxiter 400
tilesize 1
thresh 1.0d-8
lshift 0.3
end

echo
set tce:print_integrals T
set tce:qorb  8
set tce:qela  4
set tce:qelb  4

task tce energy

mcscf
  active  8
  actelec 8
  multiplicity 1
end

task mcscf

================================================================================

 Output coordinates in angstroms (scale by  1.889725989 to convert to a.u.)

  No.       Tag          Charge          X              Y              Z
 ---- ---------------- ---------- -------------- -------------- --------------
    1 H                    1.0000    -5.00000000    -1.00000000     0.00000000
    2 H                    1.0000    -3.00000000    -1.00000000     0.00000000
    3 H                    1.0000    -5.00000000     1.00000000     0.00000000
    4 H                    1.0000    -3.00000000     1.00000000     0.00000000
    5 H                    1.0000     3.00000000    -1.00000000     0.00000000
    6 H                    1.0000     5.00000000    -1.00000000     0.00000000
    7 H                    1.0000     3.00000000     1.00000000     0.00000000
    8 H                    1.0000     5.00000000     1.00000000     0.00000000

         Total SCF energy =     -2.928557551335

 Vector    1  Occ=2.000000D+00  E=-3.329918D-01

 Vector    2  Occ=2.000000D+00  E=-3.293654D-01

 Vector    3  Occ=2.000000D+00  E=-1.087204D-01

 Vector    4  Occ=2.000000D+00  E=-1.084040D-01

 Vector    5  Occ=0.000000D+00  E=-4.033716D-02

 Vector    6  Occ=0.000000D+00  E=-3.994201D-02

 Vector    7  Occ=0.000000D+00  E= 1.648508D-01

 Vector    8  Occ=0.000000D+00  E= 1.684834D-01

 CCSD total energy / hartree       =        -5.426537085557960

 Vector    1  Occ=1.558723D+00  E=-3.329918D-01  Symmetry=a

 Vector    2  Occ=1.558693D+00  E=-3.293654D-01  Symmetry=a

 Vector    3  Occ=1.000035D+00  E=-1.087204D-01  Symmetry=a

 Vector    4  Occ=1.000012D+00  E=-1.084040D-01  Symmetry=a

 Vector    5  Occ=9.999869D-01  E=-4.033716D-02  Symmetry=a

 Vector    6  Occ=9.999666D-01  E=-3.994201D-02  Symmetry=a

 Vector    7  Occ=4.412999D-01  E= 1.648508D-01  Symmetry=a

 Vector    8  Occ=4.412835D-01  E= 1.684834D-01  Symmetry=a

     Multipole analysis of the density
     ---------------------------------

     L   x y z        total        nuclear
     -   - - -        -----        -------
     0   0 0 0     -0.000000      8.000000

     1   1 0 0     -0.000000     -0.000000
     1   0 1 0     -0.000000      0.000000
     1   0 0 1      0.000000      0.000000

     2   2 0 0     -4.913156    485.664746
     2   1 1 0     -0.000000      0.000000
     2   1 0 1      0.000000      0.000000
     2   0 2 0     -4.913569     28.568514
     2   0 1 1      0.000000      0.000000

 Total times  cpu:       11.6s     wall:       15.3s
