============================== echo of input deck ==============================
start o3_13_6_6_120deg_ccpvtz

echo

##memory 3500 mb

geometry units angstroms
  symmetry c1
O   -0.37498900     0.00000000    -0.21650000
O   -0.37498900     0.00000000     1.08250000
O    0.74997800     0.00000000    -0.86600000
end

BASIS spherical
 * library cc-pvtz
END

scf
thresh 1.0e-10
tol2e 1.0e-10
singlet
rhf
end

tce
ccsd
tilesize 10
2eorb
2emet 13
thresh 1.0d-6
nroots 3
end

set tce:print_integrals T
set tce:qorb 13
set tce:qela 6
set tce:qelb 6

task tce energy

================================================================================

 Output coordinates in angstroms (scale by  1.889725989 to convert to a.u.)

  No.       Tag          Charge          X              Y              Z
 ---- ---------------- ---------- -------------- -------------- --------------
    1 O                    8.0000    -0.37498900     0.00000000    -0.21650000
    2 O                    8.0000    -0.37498900     0.00000000     1.08250000
    3 O                    8.0000     0.74997800     0.00000000    -0.86600000

         Total SCF energy =   -224.328324332606

 Vector    3  Occ=2.000000D+00  E=-2.071258D+01

 Vector    4  Occ=2.000000D+00  E=-1.720935D+00

 Vector    5  Occ=2.000000D+00  E=-1.419994D+00

 Vector    6  Occ=2.000000D+00  E=-1.097279D+00

 Vector    7  Occ=2.000000D+00  E=-8.190032D-01

 Vector    8  Occ=2.000000D+00  E=-7.910030D-01

 Vector    9  Occ=2.000000D+00  E=-7.630889D-01

 Vector   10  Occ=2.000000D+00  E=-5.680444D-01

 Vector   11  Occ=2.000000D+00  E=-5.483707D-01

 Vector   12  Occ=2.000000D+00  E=-4.860702D-01

 Vector   13  Occ=0.000000D+00  E=-5.208260D-02

 Vector   14  Occ=0.000000D+00  E= 2.568644D-01

 Vector   15  Occ=0.000000D+00  E= 3.573395D-01

 Vector   16  Occ=0.000000D+00  E= 6.393201D-01

 Vector   17  Occ=0.000000D+00  E= 6.869866D-01

 Vector   18  Occ=0.000000D+00  E= 6.923401D-01

 Vector   19  Occ=0.000000D+00  E= 7.185242D-01

 Vector   20  Occ=0.000000D+00  E= 7.557391D-01

 Vector   21  Occ=0.000000D+00  E= 7.721106D-01

 Vector   22  Occ=0.000000D+00  E= 8.055864D-01

       Multipole analysis of the density wrt the origin
       ------------------------------------------------

     L   x y z        total         open         nuclear
     -   - - -        -----         ----         -------
     0   0 0 0     -0.000000      0.000000     24.000000

     1   1 0 0     -0.246800      0.000000      0.000000
     1   0 1 0     -0.000000      0.000000      0.000000
     1   0 0 1     -0.142490      0.000000      0.000000

     2   2 0 0    -11.956171      0.000000     24.103270
     2   1 1 0     -0.000000      0.000000      0.000000
     2   1 0 1      0.453224      0.000000    -27.832059
     2   0 2 0    -10.979859      0.000000      0.000000
     2   0 1 1      0.000000      0.000000      0.000000

 CCSD total energy / hartree       =      -224.519336429540147
 Total times  cpu:      301.3s     wall:      454.1s
