============================== echo of input deck ==============================
start o3_13_6_6_130deg_ccpvtz

echo

##memory 3500 mb

geometry units angstroms
  symmetry c1
O  -0.33169724     0.00000000    -0.15467297
O  -0.33169724     0.00000000     1.14432703
O   0.66339449     0.00000000    -0.98965407
end

BASIS spherical
 * library cc-pvtz
END

scf
thresh 1.0e-10
tol2e 1.0e-10
singlet
rhf
end

tce
ccsd
tilesize 10
2eorb
2emet 13
thresh 1.0d-6
nroots 3
end

set tce:print_integrals T
set tce:qorb 13
set tce:qela 6
set tce:qelb 6

task tce energy

================================================================================

 Output coordinates in angstroms (scale by  1.889725989 to convert to a.u.)

  No.       Tag          Charge          X              Y              Z
 ---- ---------------- ---------- -------------- -------------- --------------
    1 O                    8.0000    -0.33169724     0.00000000    -0.15467297
    2 O                    8.0000    -0.33169724     0.00000000     1.14432703
    3 O                    8.0000     0.66339449     0.00000000    -0.98965407

         Total SCF energy =   -224.318859822009

 Vector    3  Occ=2.000000D+00  E=-2.071746D+01

 Vector    4  Occ=2.000000D+00  E=-1.713331D+00

 Vector    5  Occ=2.000000D+00  E=-1.431886D+00

 Vector    6  Occ=2.000000D+00  E=-1.089306D+00

 Vector    7  Occ=2.000000D+00  E=-8.191457D-01

 Vector    8  Occ=2.000000D+00  E=-7.932204D-01

 Vector    9  Occ=2.000000D+00  E=-7.594805D-01

 Vector   10  Occ=2.000000D+00  E=-5.799929D-01

 Vector   11  Occ=2.000000D+00  E=-5.339622D-01

 Vector   12  Occ=2.000000D+00  E=-4.923829D-01

 Vector   13  Occ=0.000000D+00  E=-4.884935D-02

 Vector   14  Occ=0.000000D+00  E= 2.286547D-01

 Vector   15  Occ=0.000000D+00  E= 3.862251D-01

 Vector   16  Occ=0.000000D+00  E= 6.502003D-01

 Vector   17  Occ=0.000000D+00  E= 6.865977D-01

 Vector   18  Occ=0.000000D+00  E= 6.975570D-01

 Vector   19  Occ=0.000000D+00  E= 7.019899D-01

 Vector   20  Occ=0.000000D+00  E= 7.639458D-01

 Vector   21  Occ=0.000000D+00  E= 7.823932D-01

 Vector   22  Occ=0.000000D+00  E= 7.994914D-01

       Multipole analysis of the density wrt the origin
       ------------------------------------------------

     L   x y z        total         open         nuclear
     -   - - -        -----         ----         -------
     0   0 0 0     -0.000000      0.000000     24.000000

     1   1 0 0     -0.186915      0.000000      0.000000
     1   0 1 0     -0.000000      0.000000      0.000000
     1   0 0 1     -0.087160      0.000000      0.000000

     2   2 0 0    -11.990650      0.000000     18.859173
     2   1 1 0     -0.000000      0.000000      0.000000
     2   1 0 1      0.315146      0.000000    -28.134175
     2   0 2 0    -10.991655      0.000000      0.000000
     2   0 1 1      0.000000      0.000000      0.000000

 CCSD total energy / hartree       =      -224.508352289460873
 Total times  cpu:      317.7s     wall:      477.0s
