============================== echo of input deck ==============================
start o3_13_6_6_70deg_ccpvtz

echo

##memory 3500 mb

geometry units angstroms
  symmetry c1
O   -0.40688690     0.00000000    -0.58109472
O   -0.40688690     0.00000000     0.71790528
O    0.81377381     0.00000000    -0.13681056
end

BASIS spherical
 * library cc-pvtz
END

scf
thresh 1.0e-10
tol2e 1.0e-10
singlet
rhf
end

tce
ccsd
tilesize 10
2eorb
2emet 13
thresh 1.0d-6
nroots 3
end

set tce:print_integrals T
set tce:qorb 13
set tce:qela 6
set tce:qelb 6

task tce energy

================================================================================

 Output coordinates in angstroms (scale by  1.889725989 to convert to a.u.)

  No.       Tag          Charge          X              Y              Z
 ---- ---------------- ---------- -------------- -------------- --------------
    1 O                    8.0000    -0.40688690     0.00000000    -0.58109472
    2 O                    8.0000    -0.40688690     0.00000000     0.71790528
    3 O                    8.0000     0.81377381     0.00000000    -0.13681056

         Total SCF energy =   -224.321463915912

 Vector    3  Occ=2.000000D+00  E=-2.074432D+01

 Vector    4  Occ=2.000000D+00  E=-1.786360D+00

 Vector    5  Occ=2.000000D+00  E=-1.288317D+00

 Vector    6  Occ=2.000000D+00  E=-1.174986D+00

 Vector    7  Occ=2.000000D+00  E=-8.394248D-01

 Vector    8  Occ=2.000000D+00  E=-7.646993D-01

 Vector    9  Occ=2.000000D+00  E=-7.104378D-01

 Vector   10  Occ=2.000000D+00  E=-6.126325D-01

 Vector   11  Occ=2.000000D+00  E=-5.659531D-01

 Vector   12  Occ=2.000000D+00  E=-5.020432D-01

 Vector   13  Occ=0.000000D+00  E= 1.030154D-01

 Vector   14  Occ=0.000000D+00  E= 2.570907D-01

 Vector   15  Occ=0.000000D+00  E= 3.070870D-01

 Vector   16  Occ=0.000000D+00  E= 6.539916D-01

 Vector   17  Occ=0.000000D+00  E= 6.748416D-01

 Vector   18  Occ=0.000000D+00  E= 6.995291D-01

 Vector   19  Occ=0.000000D+00  E= 7.111103D-01

 Vector   20  Occ=0.000000D+00  E= 7.525260D-01

 Vector   21  Occ=0.000000D+00  E= 7.788957D-01

 Vector   22  Occ=0.000000D+00  E= 7.989709D-01

       Multipole analysis of the density wrt the origin
       ------------------------------------------------

     L   x y z        total         open         nuclear
     -   - - -        -----         ----         -------
     0   0 0 0     -0.000000      0.000000     24.000000

     1   1 0 0     -0.050096      0.000000      0.000000
     1   0 1 0      0.000000      0.000000      0.000000
     1   0 0 1     -0.071544      0.000000     -0.000000

     2   2 0 0    -10.915292      0.000000     28.378297
     2   1 1 0      0.000000      0.000000      0.000000
     2   1 0 1     -0.290976      0.000000     -4.770921
     2   0 2 0    -11.781545      0.000000      0.000000
     2   0 1 1     -0.000000      0.000000      0.000000

 CCSD total energy / hartree       =      -224.456666688337322
 Total times  cpu:      307.7s     wall:      474.5s
