============================== echo of input deck ==============================
start o3_13_6_6_90deg_ccpvtz

echo

##memory 3500 mb

geometry units angstroms
  symmetry c1
O   -0.43300000     0.00000000    -0.43300000
O   -0.43300000     0.00000000     0.86600000
O    0.86600000     0.00000000    -0.43300000
end

BASIS spherical
 * library cc-pvtz
END

scf
thresh 1.0e-10
tol2e 1.0e-10
singlet
rhf
end

tce
ccsd
tilesize 10
2eorb
2emet 13
thresh 1.0d-6
nroots 3
end

set tce:print_integrals T
set tce:qorb 13
set tce:qela 6
set tce:qelb 6

task tce energy

================================================================================

 Output coordinates in angstroms (scale by  1.889725989 to convert to a.u.)

  No.       Tag          Charge          X              Y              Z
 ---- ---------------- ---------- -------------- -------------- --------------
    1 O                    8.0000    -0.43300000     0.00000000    -0.43300000
    2 O                    8.0000    -0.43300000     0.00000000     0.86600000
    3 O                    8.0000     0.86600000     0.00000000    -0.43300000

         Total SCF energy =   -224.255536023639

 Vector    3  Occ=2.000000D+00  E=-2.068272D+01

 Vector    4  Occ=2.000000D+00  E=-1.747550D+00

 Vector    5  Occ=2.000000D+00  E=-1.354266D+00

 Vector    6  Occ=2.000000D+00  E=-1.131357D+00

 Vector    7  Occ=2.000000D+00  E=-8.117834D-01

 Vector    8  Occ=2.000000D+00  E=-7.659117D-01

 Vector    9  Occ=2.000000D+00  E=-7.649859D-01

 Vector   10  Occ=2.000000D+00  E=-6.035672D-01

 Vector   11  Occ=2.000000D+00  E=-4.903255D-01

 Vector   12  Occ=2.000000D+00  E=-4.588274D-01

 Vector   13  Occ=0.000000D+00  E=-5.983450D-02

 Vector   14  Occ=0.000000D+00  E= 2.736043D-01

 Vector   15  Occ=0.000000D+00  E= 3.102095D-01

 Vector   16  Occ=0.000000D+00  E= 6.200200D-01

 Vector   17  Occ=0.000000D+00  E= 6.554723D-01

 Vector   18  Occ=0.000000D+00  E= 6.911866D-01

 Vector   19  Occ=0.000000D+00  E= 7.397699D-01

 Vector   20  Occ=0.000000D+00  E= 7.453619D-01

 Vector   21  Occ=0.000000D+00  E= 8.069956D-01

 Vector   22  Occ=0.000000D+00  E= 8.176435D-01

       Multipole analysis of the density wrt the origin
       ------------------------------------------------

     L   x y z        total         open         nuclear
     -   - - -        -----         ----         -------
     0   0 0 0     -0.000000      0.000000     24.000000

     1   1 0 0     -0.328743      0.000000      0.000000
     1   0 1 0      0.000000      0.000000      0.000000
     1   0 0 1     -0.328743      0.000000      0.000000

     2   2 0 0    -12.016983      0.000000     32.137693
     2   1 1 0      0.000000      0.000000      0.000000
     2   1 0 1      1.068815      0.000000    -16.068847
     2   0 2 0    -10.914535      0.000000      0.000000
     2   0 1 1      0.000000      0.000000      0.000000

 CCSD total energy / hartree       =      -224.434389006790525
 Total times  cpu:      286.3s     wall:      435.0s
