============================== echo of input deck ==============================
start o3_13_6_6_110deg_ccpvtz

echo

##memory 3500 mb

geometry units angstroms
  symmetry c1
O   -0.40688690     0.00000000    -0.28490528
O   -0.40688690     0.00000000     1.01409472
O    0.81377381     0.00000000    -0.72918944
end

BASIS spherical
 * library cc-pvtz
END

scf
thresh 1.0e-10
tol2e 1.0e-10
singlet
rhf
end

tce
ccsd
tilesize 10
2eorb
2emet 13
thresh 1.0d-6
nroots 3
end

set tce:print_integrals T
set tce:qorb 13
set tce:qela 6
set tce:qelb 6

task tce energy

================================================================================

 Output coordinates in angstroms (scale by  1.889725989 to convert to a.u.)

  No.       Tag          Charge          X              Y              Z
 ---- ---------------- ---------- -------------- -------------- --------------
    1 O                    8.0000    -0.40688690     0.00000000    -0.28490528
    2 O                    8.0000    -0.40688690     0.00000000     1.01409472
    3 O                    8.0000     0.81377381     0.00000000    -0.72918944

         Total SCF energy =   -224.325343587406

 Vector    3  Occ=2.000000D+00  E=-2.070567D+01

 Vector    4  Occ=2.000000D+00  E=-1.728390D+00

 Vector    5  Occ=2.000000D+00  E=-1.403705D+00

 Vector    6  Occ=2.000000D+00  E=-1.106198D+00

 Vector    7  Occ=2.000000D+00  E=-8.181665D-01

 Vector    8  Occ=2.000000D+00  E=-7.856278D-01

 Vector    9  Occ=2.000000D+00  E=-7.652060D-01

 Vector   10  Occ=2.000000D+00  E=-5.632639D-01

 Vector   11  Occ=2.000000D+00  E=-5.513056D-01

 Vector   12  Occ=2.000000D+00  E=-4.787028D-01

 Vector   13  Occ=0.000000D+00  E=-5.466986D-02

 Vector   14  Occ=0.000000D+00  E= 2.805368D-01

 Vector   15  Occ=0.000000D+00  E= 3.274495D-01

 Vector   16  Occ=0.000000D+00  E= 6.300235D-01

 Vector   17  Occ=0.000000D+00  E= 6.795635D-01

 Vector   18  Occ=0.000000D+00  E= 6.883876D-01

 Vector   19  Occ=0.000000D+00  E= 7.385073D-01

 Vector   20  Occ=0.000000D+00  E= 7.481052D-01

 Vector   21  Occ=0.000000D+00  E= 7.799700D-01

 Vector   22  Occ=0.000000D+00  E= 8.116590D-01

       Multipole analysis of the density wrt the origin
       ------------------------------------------------

     L   x y z        total         open         nuclear
     -   - - -        -----         ----         -------
     0   0 0 0     -0.000000      0.000000     24.000000

     1   1 0 0     -0.293802      0.000000      0.000000
     1   0 1 0     -0.000000      0.000000      0.000000
     1   0 0 1     -0.205722      0.000000     -0.000000

     2   2 0 0    -11.930174      0.000000     28.378297
     2   1 1 0     -0.000000      0.000000      0.000000
     2   1 0 1      0.624780      0.000000    -25.428632
     2   0 2 0    -10.963975      0.000000      0.000000
     2   0 1 1      0.000000      0.000000      0.000000

 CCSD total energy / hartree       =      -224.512293485123450
 Total times  cpu:      296.3s     wall:      448.7s
