============================== echo of input deck ==============================
start o3_13_6_6_140deg_ccpvtz

echo

##memory 3500 mb

geometry units angstroms
  symmetry c1
O  -0.27832703     0.00000000    -0.10130276
O  -0.27832703     0.00000000     1.19769724
O   0.55665407     0.00000000    -1.09639449
end

BASIS spherical
 * library cc-pvtz
END

scf
thresh 1.0e-10
tol2e 1.0e-10
singlet
rhf
end

tce
ccsd
tilesize 10
2eorb
2emet 13
thresh 1.0d-6
nroots 3
end

set tce:print_integrals T
set tce:qorb 13
set tce:qela 6
set tce:qelb 6

task tce energy

================================================================================

 Output coordinates in angstroms (scale by  1.889725989 to convert to a.u.)

  No.       Tag          Charge          X              Y              Z
 ---- ---------------- ---------- -------------- -------------- --------------
    1 O                    8.0000    -0.27832703     0.00000000    -0.10130276
    2 O                    8.0000    -0.27832703     0.00000000     1.19769724
    3 O                    8.0000     0.55665407     0.00000000    -1.09639449

         Total SCF energy =   -224.300607721415

 Vector    3  Occ=2.000000D+00  E=-2.072083D+01

 Vector    4  Occ=2.000000D+00  E=-1.705080D+00

 Vector    5  Occ=2.000000D+00  E=-1.439943D+00

 Vector    6  Occ=2.000000D+00  E=-1.081861D+00

 Vector    7  Occ=2.000000D+00  E=-8.192272D-01

 Vector    8  Occ=2.000000D+00  E=-7.923233D-01

 Vector    9  Occ=2.000000D+00  E=-7.543625D-01

 Vector   10  Occ=2.000000D+00  E=-5.891927D-01

 Vector   11  Occ=2.000000D+00  E=-5.190143D-01

 Vector   12  Occ=2.000000D+00  E=-4.980105D-01

 Vector   13  Occ=0.000000D+00  E=-4.474666D-02

 Vector   14  Occ=0.000000D+00  E= 1.977705D-01

 Vector   15  Occ=0.000000D+00  E= 4.117299D-01

 Vector   16  Occ=0.000000D+00  E= 6.605589D-01

 Vector   17  Occ=0.000000D+00  E= 6.863545D-01

 Vector   18  Occ=0.000000D+00  E= 6.872529D-01

 Vector   19  Occ=0.000000D+00  E= 7.068049D-01

 Vector   20  Occ=0.000000D+00  E= 7.705150D-01

 Vector   21  Occ=0.000000D+00  E= 7.938707D-01

 Vector   22  Occ=0.000000D+00  E= 7.985478D-01

       Multipole analysis of the density wrt the origin
       ------------------------------------------------

     L   x y z        total         open         nuclear
     -   - - -        -----         ----         -------
     0   0 0 0     -0.000000      0.000000     24.000000

     1   1 0 0     -0.121600      0.000000      0.000000
     1   0 1 0      0.000000      0.000000      0.000000
     1   0 0 1     -0.044259      0.000000      0.000000

     2   2 0 0    -12.012626      0.000000     13.278521
     2   1 1 0      0.000000      0.000000      0.000000
     2   1 0 1      0.208808      0.000000    -26.153580
     2   0 2 0    -10.999297      0.000000      0.000000
     2   0 1 1     -0.000000      0.000000      0.000000

 CCSD total energy / hartree       =      -224.486461933561145
 Total times  cpu:      327.3s     wall:      492.8s
