============================== echo of input deck ==============================
start o3_13_6_6_100deg_ccpvtz

echo

##memory 3500 mb

geometry units angstroms
  symmetry c1
O   -0.42642176     0.00000000    -0.35781034
O   -0.42642176     0.00000000     0.94118966
O    0.85284351     0.00000000    -0.58337932
end

BASIS spherical
 * library cc-pvtz
END

scf
thresh 1.0e-10
tol2e 1.0e-10
singlet
rhf
end

tce
ccsd
tilesize 10
2eorb
2emet 13
thresh 1.0d-6
nroots 3
end

set tce:print_integrals T
set tce:qorb 13
set tce:qela 6
set tce:qelb 6

task tce energy

================================================================================

 Output coordinates in angstroms (scale by  1.889725989 to convert to a.u.)

  No.       Tag          Charge          X              Y              Z
 ---- ---------------- ---------- -------------- -------------- --------------
    1 O                    8.0000    -0.42642176     0.00000000    -0.35781034
    2 O                    8.0000    -0.42642176     0.00000000     0.94118966
    3 O                    8.0000     0.85284351     0.00000000    -0.58337932

         Total SCF energy =   -224.304415884165

 Vector    3  Occ=2.000000D+00  E=-2.069602D+01

 Vector    4  Occ=2.000000D+00  E=-1.736639D+00

 Vector    5  Occ=2.000000D+00  E=-1.382188D+00

 Vector    6  Occ=2.000000D+00  E=-1.116928D+00

 Vector    7  Occ=2.000000D+00  E=-8.159886D-01

 Vector    8  Occ=2.000000D+00  E=-7.769463D-01

 Vector    9  Occ=2.000000D+00  E=-7.659911D-01

 Vector   10  Occ=2.000000D+00  E=-5.805999D-01

 Vector   11  Occ=2.000000D+00  E=-5.269213D-01

 Vector   12  Occ=2.000000D+00  E=-4.698052D-01

 Vector   13  Occ=0.000000D+00  E=-5.699145D-02

 Vector   14  Occ=0.000000D+00  E= 2.987186D-01

 Vector   15  Occ=0.000000D+00  E= 2.988362D-01

 Vector   16  Occ=0.000000D+00  E= 6.234444D-01

 Vector   17  Occ=0.000000D+00  E= 6.664608D-01

 Vector   18  Occ=0.000000D+00  E= 6.902453D-01

 Vector   19  Occ=0.000000D+00  E= 7.425728D-01

 Vector   20  Occ=0.000000D+00  E= 7.428611D-01

 Vector   21  Occ=0.000000D+00  E= 8.067689D-01

 Vector   22  Occ=0.000000D+00  E= 8.131748D-01

       Multipole analysis of the density wrt the origin
       ------------------------------------------------

     L   x y z        total         open         nuclear
     -   - - -        -----         ----         -------
     0   0 0 0     -0.000000      0.000000     24.000000

     1   1 0 0     -0.322156      0.000000      0.000000
     1   0 1 0      0.000000      0.000000      0.000000
     1   0 0 1     -0.270321      0.000000      0.000000

     2   2 0 0    -11.939249      0.000000     31.168623
     2   1 1 0      0.000000      0.000000      0.000000
     2   1 0 1      0.829864      0.000000    -21.320594
     2   0 2 0    -10.942993      0.000000      0.000000
     2   0 1 1      0.000000      0.000000      0.000000

 CCSD total energy / hartree       =      -224.484993533739697
 Total times  cpu:      291.6s     wall:      439.6s
