============================== echo of input deck ==============================
start o3_13_6_6_80deg_ccpvtz

echo

##memory 3500 mb

geometry units angstroms
  symmetry c1
O   -0.42642176     0.00000000    -0.50818966
O   -0.42642176     0.00000000     0.79081034
O    0.85284351     0.00000000    -0.28262068
end

BASIS spherical
 * library cc-pvtz
END

scf
thresh 1.0e-10
tol2e 1.0e-10
singlet
rhf
end

tce
ccsd
tilesize 10
2eorb
2emet 13
thresh 1.0d-6
nroots 3
end

set tce:print_integrals T
set tce:qorb 13
set tce:qela 6
set tce:qelb 6

task tce energy

================================================================================

 Output coordinates in angstroms (scale by  1.889725989 to convert to a.u.)

  No.       Tag          Charge          X              Y              Z
 ---- ---------------- ---------- -------------- -------------- --------------
    1 O                    8.0000    -0.42642176     0.00000000    -0.50818966
    2 O                    8.0000    -0.42642176     0.00000000     0.79081034
    3 O                    8.0000     0.85284351     0.00000000    -0.28262068

         Total SCF energy =   -224.286724829499

 Vector    3  Occ=2.000000D+00  E=-2.074569D+01

 Vector    4  Occ=2.000000D+00  E=-1.748025D+00

 Vector    5  Occ=2.000000D+00  E=-1.331683D+00

 Vector    6  Occ=2.000000D+00  E=-1.140362D+00

 Vector    7  Occ=2.000000D+00  E=-8.252469D-01

 Vector    8  Occ=2.000000D+00  E=-7.492339D-01

 Vector    9  Occ=2.000000D+00  E=-7.364347D-01

 Vector   10  Occ=2.000000D+00  E=-5.942521D-01

 Vector   11  Occ=2.000000D+00  E=-5.631814D-01

 Vector   12  Occ=2.000000D+00  E=-4.877723D-01

 Vector   13  Occ=0.000000D+00  E= 4.087856D-03

 Vector   14  Occ=0.000000D+00  E= 2.735496D-01

 Vector   15  Occ=0.000000D+00  E= 3.154255D-01

 Vector   16  Occ=0.000000D+00  E= 6.548848D-01

 Vector   17  Occ=0.000000D+00  E= 6.655326D-01

 Vector   18  Occ=0.000000D+00  E= 6.987330D-01

 Vector   19  Occ=0.000000D+00  E= 7.199245D-01

 Vector   20  Occ=0.000000D+00  E= 7.462754D-01

 Vector   21  Occ=0.000000D+00  E= 7.948660D-01

 Vector   22  Occ=0.000000D+00  E= 7.967904D-01

       Multipole analysis of the density wrt the origin
       ------------------------------------------------

     L   x y z        total         open         nuclear
     -   - - -        -----         ----         -------
     0   0 0 0     -0.000000      0.000000     24.000000

     1   1 0 0     -0.088843      0.000000      0.000000
     1   0 1 0      0.000000      0.000000      0.000000
     1   0 0 1     -0.105879      0.000000      0.000000

     2   2 0 0    -10.929304      0.000000     31.168623
     2   1 1 0      0.000000      0.000000      0.000000
     2   1 0 1     -0.559898      0.000000    -10.328856
     2   0 2 0    -11.864965      0.000000      0.000000
     2   0 1 1     -0.000000      0.000000      0.000000

 CCSD total energy / hartree       =      -224.442427368157240
 Total times  cpu:      373.3s     wall:      569.7s
