============================== echo of input deck ==============================
title "c20_ring_ccpvdz_17_7_7"
echo
start c20_ring_ccpvdz_17_7_7

permanent_dir /dtemp/emsls50086

memory stack 1600 mb heap 100 mb global 2400 mb noverify

geometry  units bohr print xyz
symmetry c1
C  7.73374100        0.00000000        0.00000000
C -7.73374100        0.00000000        0.00000000
C  6.25583800        4.54721400        0.00000000
C -6.25583800       -4.54721400        0.00000000
C  2.39156700        7.36013600        0.00000000
C -2.39156700       -7.36013600        0.00000000
C -2.38784900        7.35905500        0.00000000
C  2.38784900       -7.35905500        0.00000000
C -6.25441600        4.54691000        0.00000000
C  6.25441600       -4.54691000        0.00000000
C  7.38216200        2.30534500        0.00000000
C -7.38216200       -2.30534500        0.00000000
C  4.61929400        6.20889700        0.00000000
C -4.61929400       -6.20889700        0.00000000
C  0.09013800        7.73924500        0.00000000
C -0.09013800       -7.73924500        0.00000000
C -4.47097500        6.31149500        0.00000000
C  4.47097500       -6.31149500        0.00000000
C -7.32798600        2.47646000        0.00000000
C  7.32798600       -2.47646000        0.00000000
end

basis spherical
   * library cc-pvdz
end

scf
thresh 1.0e-10
tol2e 1.0e-10
rhf
singlet
maxiter 200
end

tce
   ccsd
   maxiter 200
   thresh 1.e-6
   2eorb
   2emet 13
   tilesize 1
end

set tce:print_integrals T
set tce:qorb 17
set tce:qela 7
set tce:qelb 7

task tce energy

================================================================================

 Output coordinates in a.u. (scale by  1.000000000 to convert to a.u.)

  No.       Tag          Charge          X              Y              Z
 ---- ---------------- ---------- -------------- -------------- --------------
    1 C                    6.0000     7.73374100     0.00000000     0.00000000
    2 C                    6.0000    -7.73374100     0.00000000     0.00000000
    3 C                    6.0000     6.25583800     4.54721400     0.00000000
    4 C                    6.0000    -6.25583800    -4.54721400     0.00000000
    5 C                    6.0000     2.39156700     7.36013600     0.00000000
    6 C                    6.0000    -2.39156700    -7.36013600     0.00000000
    7 C                    6.0000    -2.38784900     7.35905500     0.00000000
    8 C                    6.0000     2.38784900    -7.35905500     0.00000000
    9 C                    6.0000    -6.25441600     4.54691000     0.00000000
   10 C                    6.0000     6.25441600    -4.54691000     0.00000000
   11 C                    6.0000     7.38216200     2.30534500     0.00000000
   12 C                    6.0000    -7.38216200    -2.30534500     0.00000000
   13 C                    6.0000     4.61929400     6.20889700     0.00000000
   14 C                    6.0000    -4.61929400    -6.20889700     0.00000000
   15 C                    6.0000     0.09013800     7.73924500     0.00000000
   16 C                    6.0000    -0.09013800    -7.73924500     0.00000000
   17 C                    6.0000    -4.47097500     6.31149500     0.00000000
   18 C                    6.0000     4.47097500    -6.31149500     0.00000000
   19 C                    6.0000    -7.32798600     2.47646000     0.00000000
   20 C                    6.0000     7.32798600    -2.47646000     0.00000000

         Total SCF energy =   -756.691292937074

 Vector   21  Occ=2.000000D+00  E=-1.164617D+00

 Vector   22  Occ=2.000000D+00  E=-1.157231D+00

 Vector   23  Occ=2.000000D+00  E=-1.157068D+00

 Vector   24  Occ=2.000000D+00  E=-1.134313D+00

 Vector   25  Occ=2.000000D+00  E=-1.134255D+00

 Vector   26  Occ=2.000000D+00  E=-1.097720D+00

 Vector   27  Occ=2.000000D+00  E=-1.097636D+00

 Vector   28  Occ=2.000000D+00  E=-1.050277D+00

 Vector   29  Occ=2.000000D+00  E=-1.050098D+00

 Vector   30  Occ=2.000000D+00  E=-1.008368D+00

 Vector   31  Occ=2.000000D+00  E=-9.721086D-01

 Vector   32  Occ=2.000000D+00  E=-9.266426D-01

 Vector   33  Occ=2.000000D+00  E=-9.264120D-01

 Vector   34  Occ=2.000000D+00  E=-8.684590D-01

 Vector   35  Occ=2.000000D+00  E=-8.684356D-01

 Vector   36  Occ=2.000000D+00  E=-8.173902D-01

 Vector   37  Occ=2.000000D+00  E=-8.173073D-01

 Vector   38  Occ=2.000000D+00  E=-7.815817D-01

 Vector   39  Occ=2.000000D+00  E=-7.814194D-01

 Vector   40  Occ=2.000000D+00  E=-7.684128D-01

 Vector   41  Occ=2.000000D+00  E=-5.728600D-01

 Vector   42  Occ=2.000000D+00  E=-5.722300D-01

 Vector   43  Occ=2.000000D+00  E=-5.595088D-01

 Vector   44  Occ=2.000000D+00  E=-5.593661D-01

 Vector   45  Occ=2.000000D+00  E=-5.592935D-01

 Vector   46  Occ=2.000000D+00  E=-5.591529D-01

 Vector   47  Occ=2.000000D+00  E=-5.197038D-01

 Vector   48  Occ=2.000000D+00  E=-5.196456D-01

 Vector   49  Occ=2.000000D+00  E=-5.188560D-01

 Vector   50  Occ=2.000000D+00  E=-5.187998D-01

 Vector   51  Occ=2.000000D+00  E=-4.526278D-01

 Vector   52  Occ=2.000000D+00  E=-4.525684D-01

 Vector   53  Occ=2.000000D+00  E=-4.503305D-01

 Vector   54  Occ=2.000000D+00  E=-4.502514D-01

 Vector   55  Occ=2.000000D+00  E=-3.600021D-01

 Vector   56  Occ=2.000000D+00  E=-3.597705D-01

 Vector   57  Occ=2.000000D+00  E=-3.563364D-01

 Vector   58  Occ=2.000000D+00  E=-3.560913D-01

 Vector   59  Occ=2.000000D+00  E=-2.898869D-01

 Vector   60  Occ=2.000000D+00  E=-2.860093D-01

 Vector   61  Occ=0.000000D+00  E=-3.716645D-02

 Vector   62  Occ=0.000000D+00  E=-3.345009D-02

 Vector   63  Occ=0.000000D+00  E= 4.576127D-02

 Vector   64  Occ=0.000000D+00  E= 4.593122D-02

 Vector   65  Occ=0.000000D+00  E= 4.776703D-02

 Vector   66  Occ=0.000000D+00  E= 4.798043D-02

 Vector   67  Occ=0.000000D+00  E= 1.613909D-01

 Vector   68  Occ=0.000000D+00  E= 1.615500D-01

 Vector   69  Occ=0.000000D+00  E= 1.855436D-01

 Vector   70  Occ=0.000000D+00  E= 1.855816D-01

 Vector   71  Occ=0.000000D+00  E= 2.391388D-01

 Vector   72  Occ=0.000000D+00  E= 2.395511D-01

 Vector   73  Occ=0.000000D+00  E= 2.596410D-01

 Vector   74  Occ=0.000000D+00  E= 2.599316D-01

 Vector   75  Occ=0.000000D+00  E= 2.601025D-01

 Vector   76  Occ=0.000000D+00  E= 2.629338D-01

 Vector   77  Occ=0.000000D+00  E= 2.629695D-01

 Vector   78  Occ=0.000000D+00  E= 2.965108D-01

 Vector   79  Occ=0.000000D+00  E= 2.966457D-01

 Vector   80  Occ=0.000000D+00  E= 3.248784D-01

 Vector   81  Occ=0.000000D+00  E= 3.249773D-01

 Vector   82  Occ=0.000000D+00  E= 3.739686D-01

 Vector   83  Occ=0.000000D+00  E= 3.740350D-01

 Vector   84  Occ=0.000000D+00  E= 4.523341D-01

 Vector   85  Occ=0.000000D+00  E= 4.525654D-01

 Vector   86  Occ=0.000000D+00  E= 4.751813D-01

 Vector   87  Occ=0.000000D+00  E= 4.752671D-01

 Vector   88  Occ=0.000000D+00  E= 5.164170D-01

       Multipole analysis of the density wrt the origin
       ------------------------------------------------

     L   x y z        total         open         nuclear
     -   - - -        -----         ----         -------
     0   0 0 0     -0.000000      0.000000    120.000000

     1   1 0 0     -0.000000      0.000000      0.000000
     1   0 1 0     -0.000000      0.000000      0.000000
     1   0 0 1     -0.000000      0.000000      0.000000

     2   2 0 0    -80.756924      0.000000   3588.200496
     2   1 1 0     -0.001878      0.000000      0.828770
     2   1 0 1      0.000000      0.000000      0.000000
     2   0 2 0    -80.746242      0.000000   3592.891105
     2   0 1 1     -0.000000      0.000000      0.000000

 CCSD total energy / hartree       =      -756.812514981890104
 Total times  cpu:      485.6s     wall:      600.3s
