============================== echo of input deck ==============================
start o3_13_6_6_120deg

echo

##memory 3500 mb

geometry units angstroms
  symmetry c1
O   -0.37498900     0.00000000    -0.21650000
O   -0.37498900     0.00000000     1.08250000
O    0.74997800     0.00000000    -0.86600000
end

BASIS spherical
O    S
     10662.285000000      0.00079900
      1599.709700000      0.00615300
       364.725260000      0.03115700
       103.651790000      0.11559600
        33.905805000      0.30155200
O    S
        12.287469000      0.44487000
         4.756805000      0.24317200
O    S
         1.004271000      1.00000000
O    S
         0.300686000      1.00000000
O    S
         0.090030000      1.00000000
O    P
        34.856463000      0.01564800
         7.843131000      0.09819700
         2.306249000      0.30776800
         0.723164000      0.49247000
O    P
         0.214882000      1.00000000
O    P
         0.063850000      1.00000000
O    D
         2.306200000      0.20270000
         0.723200000      0.57910000
O    D
         0.214900000      0.78545000
         0.063900000      0.53387000
END

scf
thresh 1.0e-10
tol2e 1.0e-10
singlet
rhf
end

tce
ccsd
tilesize 10
2eorb
2emet 13
thresh 1.0d-6
nroots 3
end

set tce:print_integrals T
set tce:qorb 13
set tce:qela 6
set tce:qelb 6

task tce energy

================================================================================

 Output coordinates in angstroms (scale by  1.889725989 to convert to a.u.)

  No.       Tag          Charge          X              Y              Z
 ---- ---------------- ---------- -------------- -------------- --------------
    1 O                    8.0000    -0.37498900     0.00000000    -0.21650000
    2 O                    8.0000    -0.37498900     0.00000000     1.08250000
    3 O                    8.0000     0.74997800     0.00000000    -0.86600000

         Total SCF energy =   -224.315577721692

 Vector    3  Occ=2.000000D+00  E=-2.071798D+01

 Vector    4  Occ=2.000000D+00  E=-1.727359D+00

 Vector    5  Occ=2.000000D+00  E=-1.427071D+00

 Vector    6  Occ=2.000000D+00  E=-1.101844D+00

 Vector    7  Occ=2.000000D+00  E=-8.244968D-01

 Vector    8  Occ=2.000000D+00  E=-7.981303D-01

 Vector    9  Occ=2.000000D+00  E=-7.679436D-01

 Vector   10  Occ=2.000000D+00  E=-5.727497D-01

 Vector   11  Occ=2.000000D+00  E=-5.536497D-01

 Vector   12  Occ=2.000000D+00  E=-4.911960D-01

 Vector   13  Occ=0.000000D+00  E=-6.046670D-02

 Vector   14  Occ=0.000000D+00  E= 1.096688D-01

 Vector   15  Occ=0.000000D+00  E= 1.140760D-01

 Vector   16  Occ=0.000000D+00  E= 1.347190D-01

 Vector   17  Occ=0.000000D+00  E= 1.608846D-01

 Vector   18  Occ=0.000000D+00  E= 1.904243D-01

 Vector   19  Occ=0.000000D+00  E= 2.038898D-01

 Vector   20  Occ=0.000000D+00  E= 2.113336D-01

 Vector   21  Occ=0.000000D+00  E= 2.225610D-01

 Vector   22  Occ=0.000000D+00  E= 2.561581D-01

 Vector   23  Occ=0.000000D+00  E= 2.640926D-01

 Vector   24  Occ=0.000000D+00  E= 2.760722D-01

 Vector   25  Occ=0.000000D+00  E= 3.517421D-01

 Vector   26  Occ=0.000000D+00  E= 4.128076D-01

 Vector   27  Occ=0.000000D+00  E= 4.353150D-01

 Vector   28  Occ=0.000000D+00  E= 4.662532D-01

 Vector   29  Occ=0.000000D+00  E= 4.735281D-01

 Vector   30  Occ=0.000000D+00  E= 5.288125D-01

       Multipole analysis of the density wrt the origin
       ------------------------------------------------

     L   x y z        total         open         nuclear
     -   - - -        -----         ----         -------
     0   0 0 0     -0.000000      0.000000     24.000000

     1   1 0 0     -0.234494      0.000000      0.000000
     1   0 1 0      0.000000      0.000000      0.000000
     1   0 0 1     -0.135385      0.000000      0.000000

     2   2 0 0    -12.066028      0.000000     24.103270
     2   1 1 0      0.000000      0.000000      0.000000
     2   1 0 1      0.376356      0.000000    -27.832059
     2   0 2 0    -11.235482      0.000000      0.000000
     2   0 1 1      0.000000      0.000000      0.000000

 CCSD total energy / hartree       =      -224.395235924054845
 Total times  cpu:      302.8s     wall:      461.6s
