============================== echo of input deck ==============================
start o3_13_6_6_140deg

echo

##memory 3500 mb

geometry units angstroms
  symmetry c1
O  -0.27832703     0.00000000    -0.10130276
O  -0.27832703     0.00000000     1.19769724
O   0.55665407     0.00000000    -1.09639449
end

BASIS spherical
O    S
     10662.285000000      0.00079900
      1599.709700000      0.00615300
       364.725260000      0.03115700
       103.651790000      0.11559600
        33.905805000      0.30155200
O    S
        12.287469000      0.44487000
         4.756805000      0.24317200
O    S
         1.004271000      1.00000000
O    S
         0.300686000      1.00000000
O    S
         0.090030000      1.00000000
O    P
        34.856463000      0.01564800
         7.843131000      0.09819700
         2.306249000      0.30776800
         0.723164000      0.49247000
O    P
         0.214882000      1.00000000
O    P
         0.063850000      1.00000000
O    D
         2.306200000      0.20270000
         0.723200000      0.57910000
O    D
         0.214900000      0.78545000
         0.063900000      0.53387000
END

scf
thresh 1.0e-10
tol2e 1.0e-10
singlet
rhf
end

tce
ccsd
tilesize 10
2eorb
2emet 13
thresh 1.0d-6
nroots 3
end

set tce:print_integrals T
set tce:qorb 13
set tce:qela 6
set tce:qelb 6

task tce energy

================================================================================

 Output coordinates in angstroms (scale by  1.889725989 to convert to a.u.)

  No.       Tag          Charge          X              Y              Z
 ---- ---------------- ---------- -------------- -------------- --------------
    1 O                    8.0000    -0.27832703     0.00000000    -0.10130276
    2 O                    8.0000    -0.27832703     0.00000000     1.19769724
    3 O                    8.0000     0.55665407     0.00000000    -1.09639449

         Total SCF energy =   -224.287293710686

 Vector    3  Occ=2.000000D+00  E=-2.072638D+01

 Vector    4  Occ=2.000000D+00  E=-1.711461D+00

 Vector    5  Occ=2.000000D+00  E=-1.447266D+00

 Vector    6  Occ=2.000000D+00  E=-1.086677D+00

 Vector    7  Occ=2.000000D+00  E=-8.239277D-01

 Vector    8  Occ=2.000000D+00  E=-7.996501D-01

 Vector    9  Occ=2.000000D+00  E=-7.590963D-01

 Vector   10  Occ=2.000000D+00  E=-5.936561D-01

 Vector   11  Occ=2.000000D+00  E=-5.243471D-01

 Vector   12  Occ=2.000000D+00  E=-5.034574D-01

 Vector   13  Occ=0.000000D+00  E=-5.314463D-02

 Vector   14  Occ=0.000000D+00  E= 1.088270D-01

 Vector   15  Occ=0.000000D+00  E= 1.181592D-01

 Vector   16  Occ=0.000000D+00  E= 1.388136D-01

 Vector   17  Occ=0.000000D+00  E= 1.591011D-01

 Vector   18  Occ=0.000000D+00  E= 1.711227D-01

 Vector   19  Occ=0.000000D+00  E= 2.060090D-01

 Vector   20  Occ=0.000000D+00  E= 2.094193D-01

 Vector   21  Occ=0.000000D+00  E= 2.243382D-01

 Vector   22  Occ=0.000000D+00  E= 2.371734D-01

 Vector   23  Occ=0.000000D+00  E= 2.629809D-01

 Vector   24  Occ=0.000000D+00  E= 2.649537D-01

 Vector   25  Occ=0.000000D+00  E= 3.884612D-01

 Vector   26  Occ=0.000000D+00  E= 3.929187D-01

 Vector   27  Occ=0.000000D+00  E= 3.983208D-01

 Vector   28  Occ=0.000000D+00  E= 4.401205D-01

 Vector   29  Occ=0.000000D+00  E= 4.810558D-01

 Vector   30  Occ=0.000000D+00  E= 5.261783D-01

       Multipole analysis of the density wrt the origin
       ------------------------------------------------

     L   x y z        total         open         nuclear
     -   - - -        -----         ----         -------
     0   0 0 0     -0.000000      0.000000     24.000000

     1   1 0 0     -0.121857      0.000000      0.000000
     1   0 1 0     -0.000000      0.000000      0.000000
     1   0 0 1     -0.044352      0.000000      0.000000

     2   2 0 0    -12.191726      0.000000     13.278521
     2   1 1 0     -0.000000      0.000000      0.000000
     2   1 0 1      0.108367      0.000000    -26.153580
     2   0 2 0    -11.234160      0.000000      0.000000
     2   0 1 1     -0.000000      0.000000      0.000000

 CCSD total energy / hartree       =      -224.368460176883275
 Total times  cpu:      322.8s     wall:      484.9s
