============================== echo of input deck ==============================
start h2_2_sto6g
echo
memory stack 100 mb heap 100 mb global 200 mb noverify

geometry units angstrom
symmetry c1
H    0.000  0.000  0.000
H    0.000  0.000  1.000
H    0.000  0.000  3.000
H    0.000  0.000  4.000
end

basis
 * library sto-6g
end

scf
thresh 1.0e-8
tol2e 1.0e-9
singlet
rhf
maxiter 200
end

tce
ccsd
2eorb
2emet 13
tilesize 1
thresh 1.0d-8
end

set tce:print_integrals T
set tce:qorb  4
set tce:qela  2
set tce:qelb  2

task tce energy

mcscf
  active  4
  actelec 4
  multiplicity 1
end

task mcscf

================================================================================

 Output coordinates in angstroms (scale by  1.889725989 to convert to a.u.)

  No.       Tag          Charge          X              Y              Z
 ---- ---------------- ---------- -------------- -------------- --------------
    1 H                    1.0000     0.00000000     0.00000000    -2.00000000
    2 H                    1.0000     0.00000000     0.00000000    -1.00000000
    3 H                    1.0000     0.00000000     0.00000000     1.00000000
    4 H                    1.0000     0.00000000     0.00000000     2.00000000

         Total SCF energy =     -2.145679299822

 Vector    1  Occ=2.000000D+00  E=-5.133198D-01

 Vector    2  Occ=2.000000D+00  E=-4.687166D-01

 Vector    3  Occ=0.000000D+00  E= 3.892773D-01

 Vector    4  Occ=0.000000D+00  E= 5.256099D-01

 CCSD total energy / hartree       =        -2.216063381867682

 Vector    1  Occ=1.940964D+00  E=-5.133198D-01  Symmetry=a

 Vector    2  Occ=1.935898D+00  E=-4.687166D-01  Symmetry=a

 Vector    3  Occ=6.687131D-02  E= 3.892773D-01  Symmetry=a

 Vector    4  Occ=5.626712D-02  E= 5.256099D-01  Symmetry=a

     Multipole analysis of the density
     ---------------------------------

     L   x y z        total        nuclear
     -   - - -        -----        -------
     0   0 0 0     -0.000000      4.000000

     1   1 0 0      0.000000      0.000000
     1   0 1 0      0.000000      0.000000
     1   0 0 1     -0.000000      0.000000

     2   2 0 0     -2.777679      0.000000
     2   1 1 0      0.000000      0.000000
     2   1 0 1      0.000000      0.000000
     2   0 2 0     -2.777679      0.000000
     2   0 1 1      0.000000      0.000000

 Total times  cpu:        0.6s     wall:        0.6s
