============================== echo of input deck ==============================
start h2_3_sto6g
echo
memory stack 100 mb heap 100 mb global 200 mb noverify

geometry units angstrom
symmetry c1
H    0.000  0.000  0.000
H    0.000  0.000  1.000
H    0.000  0.000  3.000
H    0.000  0.000  4.000
H    0.000  0.000  6.000
H    0.000  0.000  7.000
end

basis
 * library sto-6g
end

scf
thresh 1.0e-8
tol2e 1.0e-9
singlet
rhf
maxiter 200
end

tce
ccsd
2eorb
2emet 13
tilesize 1
thresh 1.0d-8
end

set tce:print_integrals T
set tce:qorb  6
set tce:qela  3
set tce:qelb  3

task tce energy

mcscf
  active  6
  actelec 6
  multiplicity 1
end

task mcscf
================================================================================

 Output coordinates in angstroms (scale by  1.889725989 to convert to a.u.)

  No.       Tag          Charge          X              Y              Z
 ---- ---------------- ---------- -------------- -------------- --------------
    1 H                    1.0000     0.00000000     0.00000000    -3.50000000
    2 H                    1.0000     0.00000000     0.00000000    -2.50000000
    3 H                    1.0000     0.00000000     0.00000000    -0.50000000
    4 H                    1.0000     0.00000000     0.00000000     0.50000000
    5 H                    1.0000     0.00000000     0.00000000     2.50000000
    6 H                    1.0000     0.00000000     0.00000000     3.50000000

         Total SCF energy =     -3.217778987545

 Vector    1  Occ=2.000000D+00  E=-5.233865D-01

 Vector    2  Occ=2.000000D+00  E=-4.928858D-01

 Vector    3  Occ=2.000000D+00  E=-4.603524D-01

 Vector    4  Occ=0.000000D+00  E= 3.633549D-01

 Vector    5  Occ=0.000000D+00  E= 4.573556D-01

 Vector    6  Occ=0.000000D+00  E= 5.565433D-01

 CCSD total energy / hartree       =        -3.323270642005683

 Vector    1  Occ=1.942155D+00  E=-5.233865D-01  Symmetry=a

 Vector    2  Occ=1.938674D+00  E=-4.928858D-01  Symmetry=a

 Vector    3  Occ=1.935008D+00  E=-4.603524D-01  Symmetry=a

 Vector    4  Occ=6.899642D-02  E= 3.633549D-01  Symmetry=a

 Vector    5  Occ=6.112482D-02  E= 4.573556D-01  Symmetry=a

 Vector    6  Occ=5.404132D-02  E= 5.565433D-01  Symmetry=a

     Multipole analysis of the density
     ---------------------------------

     L   x y z        total        nuclear
     -   - - -        -----        -------
     0   0 0 0     -0.000000      6.000000

     1   1 0 0      0.000000      0.000000
     1   0 1 0      0.000000      0.000000
     1   0 0 1     -0.000000      0.000000

     2   2 0 0     -4.165178      0.000000
     2   1 1 0      0.000000      0.000000
     2   1 0 1      0.000000      0.000000
     2   0 2 0     -4.165178      0.000000
     2   0 1 1      0.000000      0.000000

 Total times  cpu:        4.2s     wall:        4.2s
