============================== echo of input deck ==============================
start h2_4_sto6g
echo
memory stack 100 mb heap 100 mb global 200 mb noverify

geometry units angstrom
symmetry c1
H    0.000  0.000  0.000
H    0.000  0.000  1.000
H    0.000  0.000  3.000
H    0.000  0.000  4.000
H    0.000  0.000  6.000
H    0.000  0.000  7.000
H    0.000  0.000  9.000
H    0.000  0.000 10.000
end

basis
 * library sto-6g
end

scf
thresh 1.0e-8
tol2e 1.0e-9
singlet
rhf
maxiter 200
end

tce
ccsd
2eorb
2emet 13
tilesize 1
thresh 1.0d-8
end

set tce:print_integrals T
set tce:qorb  8
set tce:qela  4
set tce:qelb  4

task tce energy

mcscf
  active  8
  actelec 8
  multiplicity 1
end

task mcscf

================================================================================

 Output coordinates in angstroms (scale by  1.889725989 to convert to a.u.)

  No.       Tag          Charge          X              Y              Z
 ---- ---------------- ---------- -------------- -------------- --------------
    1 H                    1.0000     0.00000000     0.00000000    -5.00000000
    2 H                    1.0000     0.00000000     0.00000000    -4.00000000
    3 H                    1.0000     0.00000000     0.00000000    -2.00000000
    4 H                    1.0000     0.00000000     0.00000000    -1.00000000
    5 H                    1.0000     0.00000000     0.00000000     1.00000000
    6 H                    1.0000     0.00000000     0.00000000     2.00000000
    7 H                    1.0000     0.00000000     0.00000000     4.00000000
    8 H                    1.0000     0.00000000     0.00000000     5.00000000

         Total SCF energy =     -4.289877599785

 Vector    1  Occ=2.000000D+00  E=-5.281870D-01

 Vector    2  Occ=2.000000D+00  E=-5.073164D-01

 Vector    3  Occ=2.000000D+00  E=-4.798655D-01

 Vector    4  Occ=2.000000D+00  E=-4.560814D-01

 Vector    5  Occ=0.000000D+00  E= 3.502554D-01

 Vector    6  Occ=0.000000D+00  E= 4.167181D-01

 Vector    7  Occ=0.000000D+00  E= 5.008984D-01

 Vector    8  Occ=0.000000D+00  E= 5.715032D-01

 CCSD total energy / hartree       =        -4.430478515888231

 Vector    1  Occ=1.942686D+00  E=-5.281870D-01  Symmetry=a

 Vector    2  Occ=1.940357D+00  E=-5.073164D-01  Symmetry=a

 Vector    3  Occ=1.937240D+00  E=-4.798655D-01  Symmetry=a

 Vector    4  Occ=1.934529D+00  E=-4.560814D-01  Symmetry=a

 Vector    5  Occ=7.012110D-02  E= 3.502554D-01  Symmetry=a

 Vector    6  Occ=6.427146D-02  E= 4.167181D-01  Symmetry=a

 Vector    7  Occ=5.777235D-02  E= 5.008984D-01  Symmetry=a

 Vector    8  Occ=5.302293D-02  E= 5.715032D-01  Symmetry=a

     Multipole analysis of the density
     ---------------------------------

     L   x y z        total        nuclear
     -   - - -        -----        -------
     0   0 0 0     -0.000000      8.000000

     1   1 0 0      0.000000      0.000000
     1   0 1 0      0.000000      0.000000
     1   0 0 1      0.000000      0.000000

     2   2 0 0     -5.552680      0.000000
     2   1 1 0      0.000000      0.000000
     2   1 0 1      0.000000      0.000000
     2   0 2 0     -5.552680      0.000000
     2   0 1 1      0.000000      0.000000

 Total times  cpu:       24.1s     wall:       24.1s
