============================== echo of input deck ==============================
start h2_5_sto6g
echo
memory stack 100 mb heap 100 mb global 200 mb noverify

geometry units angstrom
symmetry c1
H    0.000  0.000  0.000
H    0.000  0.000  1.000
H    0.000  0.000  3.000
H    0.000  0.000  4.000
H    0.000  0.000  6.000
H    0.000  0.000  7.000
H    0.000  0.000  9.000
H    0.000  0.000 10.000
H    0.000  0.000 12.000
H    0.000  0.000 13.000
end

basis
 * library sto-6g
end

scf
thresh 1.0e-8
tol2e 1.0e-9
singlet
rhf
maxiter 200
end

tce
ccsd
2eorb
2emet 13
tilesize 1
thresh 1.0d-8
end

set tce:print_integrals T
set tce:qorb 10
set tce:qela  5
set tce:qelb  5

task tce energy

mcscf
  active  10
  actelec 10
  multiplicity 1
end

task mcscf
================================================================================

 Output coordinates in angstroms (scale by  1.889725989 to convert to a.u.)

  No.       Tag          Charge          X              Y              Z
 ---- ---------------- ---------- -------------- -------------- --------------
    1 H                    1.0000     0.00000000     0.00000000    -6.50000000
    2 H                    1.0000     0.00000000     0.00000000    -5.50000000
    3 H                    1.0000     0.00000000     0.00000000    -3.50000000
    4 H                    1.0000     0.00000000     0.00000000    -2.50000000
    5 H                    1.0000     0.00000000     0.00000000    -0.50000000
    6 H                    1.0000     0.00000000     0.00000000     0.50000000
    7 H                    1.0000     0.00000000     0.00000000     2.50000000
    8 H                    1.0000     0.00000000     0.00000000     3.50000000
    9 H                    1.0000     0.00000000     0.00000000     5.50000000
   10 H                    1.0000     0.00000000     0.00000000     6.50000000

         Total SCF energy =     -5.361975870915

 Vector    1  Occ=2.000000D+00  E=-5.308170D-01

 Vector    2  Occ=2.000000D+00  E=-5.158901D-01

 Vector    3  Occ=2.000000D+00  E=-4.945467D-01

 Vector    4  Occ=2.000000D+00  E=-4.714982D-01

 Vector    5  Occ=2.000000D+00  E=-4.536253D-01

 Vector    6  Occ=0.000000D+00  E= 3.427454D-01

 Vector    7  Occ=0.000000D+00  E= 3.917459D-01

 Vector    8  Occ=0.000000D+00  E= 4.591042D-01

 Vector    9  Occ=0.000000D+00  E= 5.280724D-01

 Vector   10  Occ=0.000000D+00  E= 5.797249D-01

 CCSD total energy / hartree       =        -5.537686374159131

 Vector    1  Occ=1.942961D+00  E=-5.308170D-01  Symmetry=a

 Vector    2  Occ=1.941336D+00  E=-5.158901D-01  Symmetry=a

 Vector    3  Occ=1.938936D+00  E=-4.945467D-01  Symmetry=a

 Vector    4  Occ=1.936311D+00  E=-4.714982D-01  Symmetry=a

 Vector    5  Occ=1.934242D+00  E=-4.536253D-01  Symmetry=a

 Vector    6  Occ=7.078562D-02  E= 3.427454D-01  Symmetry=a

 Vector    7  Occ=6.632511D-02  E= 3.917459D-01  Symmetry=a

 Vector    8  Occ=6.079807D-02  E= 4.591042D-01  Symmetry=a

 Vector    9  Occ=5.582383D-02  E= 5.280724D-01  Symmetry=a

 Vector   10  Occ=5.248085D-02  E= 5.797249D-01  Symmetry=a

     Multipole analysis of the density
     ---------------------------------

     L   x y z        total        nuclear
     -   - - -        -----        -------
     0   0 0 0      0.000000     10.000000

     1   1 0 0      0.000000      0.000000
     1   0 1 0      0.000000      0.000000
     1   0 0 1     -0.000000      0.000000

     2   2 0 0     -6.940183      0.000000
     2   1 1 0      0.000000      0.000000
     2   1 0 1      0.000000      0.000000
     2   0 2 0     -6.940183      0.000000
     2   0 1 1      0.000000      0.000000

 Total times  cpu:      107.6s     wall:      107.6s
