============================== echo of input deck ==============================
start h2_6_sto6g
echo
memory stack 100 mb heap 100 mb global 200 mb noverify

geometry units angstrom
symmetry c1
H    0.000  0.000  0.000
H    0.000  0.000  1.000
H    0.000  0.000  3.000
H    0.000  0.000  4.000
H    0.000  0.000  6.000
H    0.000  0.000  7.000
H    0.000  0.000  9.000
H    0.000  0.000 10.000
H    0.000  0.000 12.000
H    0.000  0.000 13.000
H    0.000  0.000 15.000
H    0.000  0.000 16.000
end

basis
 * library sto-6g
end

scf
thresh 1.0e-8
tol2e 1.0e-9
singlet
rhf
maxiter 200
end

tce
ccsd
2eorb
2emet 13
tilesize 1
thresh 1.0d-8
end

set tce:print_integrals T
set tce:qorb 12
set tce:qela  6
set tce:qelb  6

task tce energy

mcscf
  active  12
  actelec 12
  multiplicity 1
end

task mcscf
================================================================================

 Output coordinates in angstroms (scale by  1.889725989 to convert to a.u.)

  No.       Tag          Charge          X              Y              Z
 ---- ---------------- ---------- -------------- -------------- --------------
    1 H                    1.0000     0.00000000     0.00000000    -8.00000000
    2 H                    1.0000     0.00000000     0.00000000    -7.00000000
    3 H                    1.0000     0.00000000     0.00000000    -5.00000000
    4 H                    1.0000     0.00000000     0.00000000    -4.00000000
    5 H                    1.0000     0.00000000     0.00000000    -2.00000000
    6 H                    1.0000     0.00000000     0.00000000    -1.00000000
    7 H                    1.0000     0.00000000     0.00000000     1.00000000
    8 H                    1.0000     0.00000000     0.00000000     2.00000000
    9 H                    1.0000     0.00000000     0.00000000     4.00000000
   10 H                    1.0000     0.00000000     0.00000000     5.00000000
   11 H                    1.0000     0.00000000     0.00000000     7.00000000
   12 H                    1.0000     0.00000000     0.00000000     8.00000000

         Total SCF energy =     -6.434074026137

 Vector    1  Occ=2.000000D+00  E=-5.324057D-01

 Vector    2  Occ=2.000000D+00  E=-5.212713D-01

 Vector    3  Occ=2.000000D+00  E=-5.046830D-01

 Vector    4  Occ=2.000000D+00  E=-4.849992D-01

 Vector    5  Occ=2.000000D+00  E=-4.659081D-01

 Vector    6  Occ=2.000000D+00  E=-4.520883D-01

 Vector    7  Occ=0.000000D+00  E= 3.380512D-01

 Vector    8  Occ=0.000000D+00  E= 3.755121D-01

 Vector    9  Occ=0.000000D+00  E= 4.294398D-01

 Vector   10  Occ=0.000000D+00  E= 4.900135D-01

 Vector   11  Occ=0.000000D+00  E= 5.456500D-01

 Vector   12  Occ=0.000000D+00  E= 5.846919D-01

 CCSD total energy / hartree       =        -6.644894206486099

 Vector    1  Occ=1.943122D+00  E=-5.324057D-01  Symmetry=a

 Vector    2  Occ=1.941935D+00  E=-5.212713D-01  Symmetry=a

 Vector    3  Occ=1.940097D+00  E=-5.046830D-01  Symmetry=a

 Vector    4  Occ=1.937871D+00  E=-4.849992D-01  Symmetry=a

 Vector    5  Occ=1.935681D+00  E=-4.659081D-01  Symmetry=a

 Vector    6  Occ=1.934055D+00  E=-4.520883D-01  Symmetry=a

 Vector    7  Occ=7.120981D-02  E= 3.380512D-01  Symmetry=a

 Vector    8  Occ=6.771782D-02  E= 3.755121D-01  Symmetry=a

 Vector    9  Occ=6.308927D-02  E= 4.294398D-01  Symmetry=a

 Vector   10  Occ=5.843941D-02  E= 4.900135D-01  Symmetry=a

 Vector   11  Occ=5.462302D-02  E= 5.456500D-01  Symmetry=a

 Vector   12  Occ=5.215991D-02  E= 5.846919D-01  Symmetry=a

     Multipole analysis of the density
     ---------------------------------

     L   x y z        total        nuclear
     -   - - -        -----        -------
     0   0 0 0      0.000000     12.000000

     1   1 0 0      0.000000      0.000000
     1   0 1 0      0.000000      0.000000
     1   0 0 1     -0.000000     -0.000000

     2   2 0 0     -8.327685      0.000000
     2   1 1 0      0.000000      0.000000
     2   1 0 1      0.000000      0.000000
     2   0 2 0     -8.327685      0.000000
     2   0 1 1      0.000000      0.000000

 Total times  cpu:      750.5s     wall:      750.5s
