============================== echo of input deck ==============================
start h2o_oh0.9_sto3g

echo
memory stack 1000 mb heap 100 mb global 1000 mb noverify

geometry units angstrom
symmetry c1
 zmatrix
  O
  H1  O 0.9572
  H2  O 0.9000 H1 104.52
 end
end

basis
 * library sto-3g
end

scf
thresh 1.0e-10
tol2e 1.0e-11
rhf
end

tce
  ccsd
  2eorb
  2emet 13
  tilesize 1
  thresh 1.0e-6
  nroots 1
end

set tce:print_integrals T
set tce:qorb  7
set tce:qela  5
set tce:qelb  5

task tce energy

================================================================================

 Output coordinates in angstroms (scale by  1.889725989 to convert to a.u.)

  No.       Tag          Charge          X              Y              Z
 ---- ---------------- ---------- -------------- -------------- --------------
    1 O                    8.0000    -0.08712542     0.00000000    -0.07315539
    2 H1                   1.0000    -0.08712542     0.00000000     0.88404461
    3 H2                   1.0000     0.78412875     0.00000000    -0.29880153

         Total SCF energy =    -74.953732593411

 Vector    2  Occ=2.000000D+00  E=-1.284757D+00

 Vector    3  Occ=2.000000D+00  E=-6.331958D-01

 Vector    4  Occ=2.000000D+00  E=-4.564199D-01

 Vector    5  Occ=2.000000D+00  E=-3.936580D-01

 Vector    6  Occ=0.000000D+00  E= 6.281509D-01

 Vector    7  Occ=0.000000D+00  E= 7.849111D-01

       Multipole analysis of the density wrt the origin
       ------------------------------------------------

     L   x y z        total         open         nuclear
     -   - - -        -----         ----         -------
     0   0 0 0     -0.000000      0.000000     10.000000

     1   1 0 0      0.555301      0.000000      0.000000
     1   0 1 0      0.000000      0.000000      0.000000
     1   0 0 1      0.416274      0.000000      0.000000

     2   2 0 0     -3.748662      0.000000      2.439663
     2   1 1 0      0.000000      0.000000      0.000000
     2   1 0 1     -0.360065      0.000000     -0.929663
     2   0 2 0     -4.511303      0.000000      0.000000
     2   0 1 1      0.000000      0.000000      0.000000

 CCSD total energy / hartree       =       -74.999671064992953
 Total times  cpu:        1.2s     wall:        2.5s
