============================== echo of input deck ==============================
start h2o_oh0.7_sto3g

echo
memory stack 1000 mb heap 100 mb global 1000 mb noverify

geometry units angstrom
symmetry c1
 zmatrix
  O
  H1  O 0.9572
  H2  O 0.7000 H1 104.52
 end
end

basis
 * library sto-3g
end

scf
thresh 1.0e-10
tol2e 1.0e-11
rhf
end

tce
  ccsd
  2eorb
  2emet 13
  tilesize 1
  thresh 1.0e-6
  nroots 1
end

set tce:print_integrals T
set tce:qorb  7
set tce:qela  5
set tce:qelb  5

task tce energy

================================================================================

 Output coordinates in angstroms (scale by  1.889725989 to convert to a.u.)

  No.       Tag          Charge          X              Y              Z
 ---- ---------------- ---------- -------------- -------------- --------------
    1 O                    8.0000    -0.06776421     0.00000000    -0.07816974
    2 H1                   1.0000    -0.06776421     0.00000000     0.87903026
    3 H2                   1.0000     0.60987791     0.00000000    -0.25367230

         Total SCF energy =    -74.784816186460

 Vector    2  Occ=2.000000D+00  E=-1.371459D+00

 Vector    3  Occ=2.000000D+00  E=-6.858401D-01

 Vector    4  Occ=2.000000D+00  E=-4.721273D-01

 Vector    5  Occ=2.000000D+00  E=-4.126853D-01

 Vector    6  Occ=0.000000D+00  E= 6.456787D-01

 Vector    7  Occ=0.000000D+00  E= 1.027793D+00

       Multipole analysis of the density wrt the origin
       ------------------------------------------------

     L   x y z        total         open         nuclear
     -   - - -        -----         ----         -------
     0   0 0 0     -0.000000      0.000000     10.000000

     1   1 0 0      0.603926      0.000000      0.000000
     1   0 1 0      0.000000      0.000000      0.000000
     1   0 0 1      0.440946      0.000000      0.000000

     2   2 0 0     -3.835186      0.000000      1.475846
     2   1 1 0     -0.000000      0.000000      0.000000
     2   1 0 1     -0.312622      0.000000     -0.613863
     2   0 2 0     -4.429161      0.000000      0.000000
     2   0 1 1      0.000000      0.000000      0.000000

 CCSD total energy / hartree       =       -74.821404312415638
 Total times  cpu:        1.1s     wall:        2.5s
