============================== echo of input deck ==============================
start h2o_oh1.5_sto3g

echo
memory stack 1000 mb heap 100 mb global 1000 mb noverify

geometry units angstrom
symmetry c1
 zmatrix
  O
  H1  O 0.9572
  H2  O 1.5000 H1 104.52
 end
end

basis
 * library sto-3g
end

scf
thresh 1.0e-10
tol2e 1.0e-11
rhf
end

tce
  ccsd
  2eorb
  2emet 13
  tilesize 1
  thresh 1.0e-6
  nroots 1
end

set tce:print_integrals T
set tce:qorb  7
set tce:qela  5
set tce:qelb  5

task tce energy

================================================================================

 Output coordinates in angstroms (scale by  1.889725989 to convert to a.u.)

  No.       Tag          Charge          X              Y              Z
 ---- ---------------- ---------- -------------- -------------- --------------
    1 O                    8.0000    -0.14520903     0.00000000    -0.05811231
    2 H1                   1.0000    -0.14520903     0.00000000     0.89908769
    3 H2                   1.0000     1.30688125     0.00000000    -0.43418921

         Total SCF energy =    -74.825515932208

 Vector    2  Occ=2.000000D+00  E=-1.214836D+00

 Vector    3  Occ=2.000000D+00  E=-5.331176D-01

 Vector    4  Occ=2.000000D+00  E=-3.947234D-01

 Vector    5  Occ=2.000000D+00  E=-3.793398D-01

 Vector    6  Occ=0.000000D+00  E= 2.749651D-01

 Vector    7  Occ=0.000000D+00  E= 6.672639D-01

       Multipole analysis of the density wrt the origin
       ------------------------------------------------

     L   x y z        total         open         nuclear
     -   - - -        -----         ----         -------
     0   0 0 0     -0.000000      0.000000     10.000000

     1   1 0 0      0.346394      0.000000      0.000000
     1   0 1 0     -0.000000      0.000000      0.000000
     1   0 0 1      0.452709      0.000000      0.000000

     2   2 0 0     -3.522813      0.000000      6.776843
     2   1 1 0     -0.000000      0.000000      0.000000
     2   1 0 1     -0.452801      0.000000     -2.251492
     2   0 2 0     -4.644604      0.000000      0.000000
     2   0 1 1      0.000000      0.000000      0.000000

 CCSD total energy / hartree       =       -74.933090308567429
 Total times  cpu:        1.6s     wall:        3.5s
