============================== echo of input deck ==============================
start h2o_oh0.8_sto3g

echo
memory stack 1000 mb heap 100 mb global 1000 mb noverify

geometry units angstrom
symmetry c1
 zmatrix
  O
  H1  O 0.9572
  H2  O 0.8000 H1 104.52
 end
end

basis
 * library sto-3g
end

scf
thresh 1.0e-10
tol2e 1.0e-11
rhf
end

tce
  ccsd
  2eorb
  2emet 13
  tilesize 1
  thresh 1.0e-6
  nroots 1
end

set tce:print_integrals T
set tce:qorb  7
set tce:qela  5
set tce:qelb  5

task tce energy

================================================================================

 Output coordinates in angstroms (scale by  1.889725989 to convert to a.u.)

  No.       Tag          Charge          X              Y              Z
 ---- ---------------- ---------- -------------- -------------- --------------
    1 O                    8.0000    -0.07744481     0.00000000    -0.07566257
    2 H1                   1.0000    -0.07744481     0.00000000     0.88153743
    3 H2                   1.0000     0.69700333     0.00000000    -0.27623691

         Total SCF energy =    -74.904531402590

 Vector    2  Occ=2.000000D+00  E=-1.322021D+00

 Vector    3  Occ=2.000000D+00  E=-6.598731D-01

 Vector    4  Occ=2.000000D+00  E=-4.630115D-01

 Vector    5  Occ=2.000000D+00  E=-4.007248D-01

 Vector    6  Occ=0.000000D+00  E= 6.446370D-01

 Vector    7  Occ=0.000000D+00  E= 8.931541D-01

       Multipole analysis of the density wrt the origin
       ------------------------------------------------

     L   x y z        total         open         nuclear
     -   - - -        -----         ----         -------
     0   0 0 0     -0.000000      0.000000     10.000000

     1   1 0 0      0.583921      0.000000     -0.000000
     1   0 1 0     -0.000000      0.000000      0.000000
     1   0 0 1      0.423210      0.000000      0.000000

     2   2 0 0     -3.793696      0.000000      1.927635
     2   1 1 0      0.000000      0.000000      0.000000
     2   1 0 1     -0.336982      0.000000     -0.763962
     2   0 2 0     -4.472767      0.000000      0.000000
     2   0 1 1     -0.000000      0.000000      0.000000

 CCSD total energy / hartree       =       -74.945351757534141
 Total times  cpu:        1.1s     wall:        2.3s
