============================== echo of input deck ==============================
start h2o_oh3.0_sto3g

echo
memory stack 1000 mb heap 100 mb global 1000 mb noverify

geometry units angstrom
symmetry c1
 zmatrix
  O
  H1  O 0.9572
  H2  O 3.0000 H1 104.52
 end
end

basis
 * library sto-3g
end

scf
thresh 1.0e-10
tol2e 1.0e-11
rhf
end

tce
  ccsd
  2eorb
  2emet 13
  tilesize 1
  thresh 1.0e-6
  nroots 1
end

set tce:print_integrals T
set tce:qorb  7
set tce:qela  5
set tce:qelb  5

task tce energy

================================================================================

 Output coordinates in angstroms (scale by  1.889725989 to convert to a.u.)

  No.       Tag          Charge          X              Y              Z
 ---- ---------------- ---------- -------------- -------------- --------------
    1 O                    8.0000    -0.29041805     0.00000000    -0.02050462
    2 H1                   1.0000    -0.29041805     0.00000000     0.93669538
    3 H2                   1.0000     2.61376249     0.00000000    -0.77265843

         Total SCF energy =    -74.521546924315

 Vector    2  Occ=2.000000D+00  E=-1.210515D+00

 Vector    3  Occ=2.000000D+00  E=-5.270535D-01

 Vector    4  Occ=2.000000D+00  E=-4.011156D-01

 Vector    5  Occ=2.000000D+00  E=-1.803393D-01

 Vector    6  Occ=0.000000D+00  E= 1.835424D-02

 Vector    7  Occ=0.000000D+00  E= 6.531695D-01

       Multipole analysis of the density wrt the origin
       ------------------------------------------------

     L   x y z        total         open         nuclear
     -   - - -        -----         ----         -------
     0   0 0 0     -0.000000      0.000000     10.000000

     1   1 0 0      0.082376      0.000000      0.000000
     1   0 1 0      0.000000      0.000000      0.000000
     1   0 0 1      0.490652      0.000000      0.000000

     2   2 0 0     -3.739534      0.000000     27.107371
     2   1 1 0      0.000000      0.000000      0.000000
     2   1 0 1     -0.395548      0.000000     -8.013253
     2   0 2 0     -4.653936      0.000000      0.000000
     2   0 1 1      0.000000      0.000000      0.000000

 CCSD total energy / hartree       =       -74.851902914023526
 Total times  cpu:        2.3s     wall:        3.9s
