============================== echo of input deck ==============================
start h2o_oh0.9572_sto3g

echo
memory stack 1000 mb heap 100 mb global 1000 mb noverify

geometry units angstrom
symmetry c1
 zmatrix
  O
  H1  O 0.9572
  H2  O 0.9572 H1 104.52
 end
end

basis
 * library sto-3g
end

scf
thresh 1.0e-10
tol2e 1.0e-11
rhf
end

tce
  ccsd
  2eorb
  2emet 13
  tilesize 1
  thresh 1.0e-6
  nroots 1
end

set tce:print_integrals T
set tce:qorb  7
set tce:qela  5
set tce:qelb  5

task tce energy

================================================================================

 Output coordinates in angstroms (scale by  1.889725989 to convert to a.u.)

  No.       Tag          Charge          X              Y              Z
 ---- ---------------- ---------- -------------- -------------- --------------
    1 O                    8.0000    -0.09266272     0.00000000    -0.07172128
    2 H1                   1.0000    -0.09266272     0.00000000     0.88547872
    3 H2                   1.0000     0.83396449     0.00000000    -0.31170849

         Total SCF energy =    -74.962928236841

 Vector    2  Occ=2.000000D+00  E=-1.268409D+00

 Vector    3  Occ=2.000000D+00  E=-6.179343D-01

 Vector    4  Occ=2.000000D+00  E=-4.529945D-01

 Vector    5  Occ=2.000000D+00  E=-3.912447D-01

 Vector    6  Occ=0.000000D+00  E= 6.056739D-01

 Vector    7  Occ=0.000000D+00  E= 7.423992D-01

       Multipole analysis of the density wrt the origin
       ------------------------------------------------

     L   x y z        total         open         nuclear
     -   - - -        -----         ----         -------
     0   0 0 0     -0.000000      0.000000     10.000000

     1   1 0 0      0.536936      0.000000      0.000000
     1   0 1 0      0.000000      0.000000      0.000000
     1   0 0 1      0.415590      0.000000      0.000000

     2   2 0 0     -3.721485      0.000000      2.759626
     2   1 1 0      0.000000      0.000000      0.000000
     2   1 0 1     -0.372884      0.000000     -1.031458
     2   0 2 0     -4.530982      0.000000      0.000000
     2   0 1 1     -0.000000      0.000000      0.000000

 CCSD total energy / hartree       =       -75.012287283857859
 Total times  cpu:        1.1s     wall:        2.3s
