============================== echo of input deck ==============================
start h2o_oh2.0_sto3g

echo
memory stack 1000 mb heap 100 mb global 1000 mb noverify

geometry units angstrom
symmetry c1
 zmatrix
  O
  H1  O 0.9572
  H2  O 2.0000 H1 104.52
 end
end

basis
 * library sto-3g
end

scf
thresh 1.0e-10
tol2e 1.0e-11
rhf
end

tce
  ccsd
  2eorb
  2emet 13
  tilesize 1
  thresh 1.0e-6
  nroots 1
end

set tce:print_integrals T
set tce:qorb  7
set tce:qela  5
set tce:qelb  5

task tce energy

================================================================================

 Output coordinates in angstroms (scale by  1.889725989 to convert to a.u.)

  No.       Tag          Charge          X              Y              Z
 ---- ---------------- ---------- -------------- -------------- --------------
    1 O                    8.0000    -0.19361204     0.00000000    -0.04557641
    2 H1                   1.0000    -0.19361204     0.00000000     0.91162359
    3 H2                   1.0000     1.74250833     0.00000000    -0.54701228

         Total SCF energy =    -74.669401789392

 Vector    2  Occ=2.000000D+00  E=-1.213626D+00

 Vector    3  Occ=2.000000D+00  E=-5.290221D-01

 Vector    4  Occ=2.000000D+00  E=-4.024384D-01

 Vector    5  Occ=2.000000D+00  E=-2.812440D-01

 Vector    6  Occ=0.000000D+00  E= 1.238901D-01

 Vector    7  Occ=0.000000D+00  E= 6.542173D-01

       Multipole analysis of the density wrt the origin
       ------------------------------------------------

     L   x y z        total         open         nuclear
     -   - - -        -----         ----         -------
     0   0 0 0     -0.000000      0.000000     10.000000

     1   1 0 0      0.192134      0.000000      0.000000
     1   0 1 0     -0.000000      0.000000      0.000000
     1   0 0 1      0.484097      0.000000      0.000000

     2   2 0 0     -3.575815      0.000000     12.047721
     2   1 1 0     -0.000000      0.000000      0.000000
     2   1 0 1     -0.427893      0.000000     -3.782049
     2   0 2 0     -4.669214      0.000000      0.000000
     2   0 1 1      0.000000      0.000000      0.000000

 CCSD total energy / hartree       =       -74.869527659197871
 Total times  cpu:        1.7s     wall:        3.2s
