============================== echo of input deck ==============================
start h2o_oh2.5_sto3g

echo
memory stack 1000 mb heap 100 mb global 1000 mb noverify

geometry units angstrom
symmetry c1
 zmatrix
  O
  H1  O 0.9572
  H2  O 2.5000 H1 104.52
 end
end

basis
 * library sto-3g
end

scf
thresh 1.0e-10
tol2e 1.0e-11
rhf
end

tce
  ccsd
  2eorb
  2emet 13
  tilesize 1
  thresh 1.0e-6
  nroots 1
end

set tce:print_integrals T
set tce:qorb  7
set tce:qela  5
set tce:qelb  5

task tce energy

================================================================================

 Output coordinates in angstroms (scale by  1.889725989 to convert to a.u.)

  No.       Tag          Charge          X              Y              Z
 ---- ---------------- ---------- -------------- -------------- --------------
    1 O                    8.0000    -0.24201505     0.00000000    -0.03304052
    2 H1                   1.0000    -0.24201505     0.00000000     0.92415948
    3 H2                   1.0000     2.17813541     0.00000000    -0.65983536

         Total SCF energy =    -74.572392843437

 Vector    2  Occ=2.000000D+00  E=-1.212556D+00

 Vector    3  Occ=2.000000D+00  E=-5.285807D-01

 Vector    4  Occ=2.000000D+00  E=-4.029376D-01

 Vector    5  Occ=2.000000D+00  E=-2.165532D-01

 Vector    6  Occ=0.000000D+00  E= 5.334766D-02

 Vector    7  Occ=0.000000D+00  E= 6.520012D-01

       Multipole analysis of the density wrt the origin
       ------------------------------------------------

     L   x y z        total         open         nuclear
     -   - - -        -----         ----         -------
     0   0 0 0     -0.000000      0.000000     10.000000

     1   1 0 0      0.110275      0.000000      0.000000
     1   0 1 0      0.000000      0.000000      0.000000
     1   0 0 1      0.492485      0.000000      0.000000

     2   2 0 0     -3.691061      0.000000     18.824563
     2   1 1 0      0.000000      0.000000      0.000000
     2   1 0 1     -0.391250      0.000000     -5.702636
     2   0 2 0     -4.662762      0.000000      0.000000
     2   0 1 1     -0.000000      0.000000      0.000000

 CCSD total energy / hartree       =       -74.854226576611723
 Total times  cpu:        1.9s     wall:        8.0s
