============================== echo of input deck ==============================
start h2o_oh1.7_sto3g

echo
memory stack 1000 mb heap 100 mb global 1000 mb noverify

geometry units angstrom
symmetry c1
 zmatrix
  O
  H1  O 0.9572
  H2  O 1.7000 H1 104.52
 end
end

basis
 * library sto-3g
end

scf
thresh 1.0e-10
tol2e 1.0e-11
rhf
end

tce
  ccsd
  2eorb
  2emet 13
  tilesize 1
  thresh 1.0e-6
  nroots 1
end

set tce:print_integrals T
set tce:qorb  7
set tce:qela  5
set tce:qelb  5

task tce energy

================================================================================

 Output coordinates in angstroms (scale by  1.889725989 to convert to a.u.)

  No.       Tag          Charge          X              Y              Z
 ---- ---------------- ---------- -------------- -------------- --------------
    1 O                    8.0000    -0.16457023     0.00000000    -0.05309795
    2 H1                   1.0000    -0.16457023     0.00000000     0.90410205
    3 H2                   1.0000     1.48113208     0.00000000    -0.47931844

         Total SCF energy =    -74.757268471783

 Vector    2  Occ=2.000000D+00  E=-1.213434D+00

 Vector    3  Occ=2.000000D+00  E=-5.293051D-01

 Vector    4  Occ=2.000000D+00  E=-3.987003D-01

 Vector    5  Occ=2.000000D+00  E=-3.374462D-01

 Vector    6  Occ=0.000000D+00  E= 2.004786D-01

 Vector    7  Occ=0.000000D+00  E= 6.602882D-01

       Multipole analysis of the density wrt the origin
       ------------------------------------------------

     L   x y z        total         open         nuclear
     -   - - -        -----         ----         -------
     0   0 0 0     -0.000000      0.000000     10.000000

     1   1 0 0      0.278206      0.000000      0.000000
     1   0 1 0     -0.000000      0.000000      0.000000
     1   0 0 1      0.468116      0.000000      0.000000

     2   2 0 0     -3.520070      0.000000      8.704478
     2   1 1 0     -0.000000      0.000000      0.000000
     2   1 0 1     -0.451442      0.000000     -2.816911
     2   0 2 0     -4.660936      0.000000      0.000000
     2   0 1 1      0.000000      0.000000      0.000000

 CCSD total energy / hartree       =       -74.899359577011268
 Total times  cpu:        1.8s     wall:        3.8s
