============================== echo of input deck ==============================
start h2o_oh1.1_sto3g

echo
memory stack 1000 mb heap 100 mb global 1000 mb noverify

geometry units angstrom
symmetry c1
 zmatrix
  O
  H1  O 0.9572
  H2  O 1.1000 H1 104.52
 end
end

basis
 * library sto-3g
end

scf
thresh 1.0e-10
tol2e 1.0e-11
rhf
end

tce
  ccsd
  2eorb
  2emet 13
  tilesize 1
  thresh 1.0e-6
  nroots 1
end

set tce:print_integrals T
set tce:qorb  7
set tce:qela  5
set tce:qelb  5

task tce energy

================================================================================

 Output coordinates in angstroms (scale by  1.889725989 to convert to a.u.)

  No.       Tag          Charge          X              Y              Z
 ---- ---------------- ---------- -------------- -------------- --------------
    1 O                    8.0000    -0.10648662     0.00000000    -0.06814103
    2 H1                   1.0000    -0.10648662     0.00000000     0.88905897
    3 H2                   1.0000     0.95837958     0.00000000    -0.34393076

         Total SCF energy =    -74.951245691809

 Vector    2  Occ=2.000000D+00  E=-1.240224D+00

 Vector    3  Occ=2.000000D+00  E=-5.823462D-01

 Vector    4  Occ=2.000000D+00  E=-4.427890D-01

 Vector    5  Occ=2.000000D+00  E=-3.888246D-01

 Vector    6  Occ=0.000000D+00  E= 5.103937D-01

 Vector    7  Occ=0.000000D+00  E= 6.961778D-01

       Multipole analysis of the density wrt the origin
       ------------------------------------------------

     L   x y z        total         open         nuclear
     -   - - -        -----         ----         -------
     0   0 0 0     -0.000000      0.000000     10.000000

     1   1 0 0      0.488439      0.000000      0.000000
     1   0 1 0      0.000000      0.000000      0.000000
     1   0 0 1      0.420393      0.000000      0.000000

     2   2 0 0     -3.652454      0.000000      3.644435
     2   1 1 0      0.000000      0.000000      0.000000
     2   1 0 1     -0.403086      0.000000     -1.307867
     2   0 2 0     -4.572896      0.000000      0.000000
     2   0 1 1     -0.000000      0.000000      0.000000

 CCSD total energy / hartree       =       -75.011054374525926
 Total times  cpu:        1.3s     wall:        2.5s
