============================== echo of input deck ==============================
start h4_sto6g_0.500

memory stack 100 mb heap 100 mb global 200 mb noverify

geometry units angstrom
symmetry c1
H   -1.000  0.000  0.000
H    1.000  0.000  0.000
H   -3.000  0.000  0.000
H    3.000  0.000  0.000
end

basis
 * library sto-6g
end

scf
thresh 1.0e-8
tol2e 1.0e-9
singlet
rhf
maxiter 200
end

tce
ccsd
2eorb
2emet 13
tilesize 1
thresh 1.0d-8
end

echo
set tce:print_integrals T
set tce:qorb  4
set tce:qela  2
set tce:qelb  2

task tce energy

mcscf
  active  4
  actelec 4
  multiplicity 1
end

task mcscf

================================================================================

 Output coordinates in angstroms (scale by  1.889725989 to convert to a.u.)

  No.       Tag          Charge          X              Y              Z
 ---- ---------------- ---------- -------------- -------------- --------------
    1 H                    1.0000    -1.00000000     0.00000000     0.00000000
    2 H                    1.0000     1.00000000     0.00000000     0.00000000
    3 H                    1.0000    -3.00000000     0.00000000     0.00000000
    4 H                    1.0000     3.00000000     0.00000000     0.00000000

         Total SCF energy =     -1.593799103409

 Vector    1  Occ=2.000000D+00  E=-3.151356D-01

 Vector    2  Occ=2.000000D+00  E=-2.406909D-01

 Vector    3  Occ=0.000000D+00  E= 5.843155D-02

 Vector    4  Occ=0.000000D+00  E= 1.578273D-01

 CCSD total energy / hartree       =        -1.934012390662174

 Vector    1  Occ=1.501172D+00  E=-3.151356D-01  Symmetry=a

 Vector    2  Occ=1.327368D+00  E=-2.406909D-01  Symmetry=a

 Vector    3  Occ=6.752974D-01  E= 5.843155D-02  Symmetry=a

 Vector    4  Occ=4.961628D-01  E= 1.578273D-01  Symmetry=a

     Multipole analysis of the density
     ---------------------------------

     L   x y z        total        nuclear
     -   - - -        -----        -------
     0   0 0 0     -0.000000      4.000000

     1   1 0 0      0.000000      0.000000
     1   0 1 0      0.000000      0.000000
     1   0 0 1      0.000000      0.000000

     2   2 0 0     -2.229389     71.421286
     2   1 1 0      0.000000      0.000000
     2   1 0 1      0.000000      0.000000
     2   0 2 0     -2.667117      0.000000
     2   0 1 1      0.000000      0.000000

 Total times  cpu:        1.3s     wall:        1.3s
